# vtk DataFile Version 2.0
simple_9_homogen_highAR_SI_006.vtk
ASCII

DATASET POLYDATA
POINTS 15 double
2.500000e-05 2.500000e-05 8.250000e-05 
2.475000e-04 2.500000e-05 8.250000e-05 
4.700000e-04 2.500000e-05 8.250000e-05 
2.500000e-05 2.475000e-04 8.250000e-05 
2.475000e-04 2.475000e-04 8.250000e-05 
4.700000e-04 2.475000e-04 8.250000e-05 
2.500000e-05 4.700000e-04 8.250000e-05 
2.475000e-04 4.700000e-04 8.250000e-05 
4.700000e-04 4.700000e-04 8.250000e-05 
-1.400000e-04 2.500000e-05 8.250000e-05 
6.350000e-04 2.500000e-05 8.250000e-05 
-1.400000e-04 2.475000e-04 8.250000e-05 
6.350000e-04 2.475000e-04 8.250000e-05 
-1.400000e-04 4.700000e-04 8.250000e-05 
6.350000e-04 4.700000e-04 8.250000e-05 
LINES 18 54
2 0 1 2 0 3 2 0 9 2 1 2 2 1 4 2 10 2 2 2 5 2 3 4 2 3 6 2 3 11 2 4 5 2 4 7 2 12 5 2 5 8 2 6 7 2 6 13 2 7 8 2 14 8 POINT_DATA  15 
SCALARS radius float  1 
LOOKUP_TABLE default
5.750000e-05 
5.750000e-05 
5.750000e-05 
5.750000e-05 
5.750000e-05 
5.750000e-05 
5.750000e-05 
5.750000e-05 
5.750000e-05 
0 
0 
0 
0 
0 
0 
SCALARS pressure float  1 
LOOKUP_TABLE default
4.320075e-01 
2.797419e-01 
1.122649e-01 
4.621242e-01 
2.949457e-01 
1.171131e-01 
5.437030e-01 
3.208363e-01 
1.238888e-01 
1 
0 
1 
0 
1 
0 
SCALARS wettingPhaseSaturation float  1 
LOOKUP_TABLE default
2.376444e-02 
2.376444e-02 
2.376444e-02 
2.376444e-02 
2.376444e-02 
2.376444e-02 
2.376444e-02 
2.376444e-02 
2.376444e-02 
1 
0 
1 
0 
1 
0 
CELL_DATA  18 
SCALARS radius float  1 
LOOKUP_TABLE default
2.500000e-05 
2.500000e-05 
2.500000e-05 
2.500000e-05 
2.500000e-05 
2.500000e-05 
2.500000e-05 
2.500000e-05 
2.500000e-05 
2.500000e-05 
2.500000e-05 
2.500000e-05 
2.500000e-05 
2.500000e-05 
2.500000e-05 
2.500000e-05 
2.500000e-05 
2.500000e-05 
SCALARS pressure float  1 
LOOKUP_TABLE default
3.558747e-01 
4.470659e-01 
7.160037e-01 
1.960034e-01 
2.873438e-01 
5.613247e-02 
1.146890e-01 
3.785349e-01 
5.029136e-01 
7.310621e-01 
2.060294e-01 
3.078910e-01 
5.855657e-02 
1.205010e-01 
4.322697e-01 
7.718515e-01 
2.223626e-01 
6.194440e-02 
SCALARS wettingPhaseSaturation float  1 
LOOKUP_TABLE default
1.257139e-01 
1.257139e-01 
3.337208e-02 
1.257139e-01 
1.257139e-01 
1.257139e-01 
1.257139e-01 
1.257139e-01 
1.257139e-01 
3.337208e-02 
1.257139e-01 
1.257139e-01 
1.257139e-01 
1.257139e-01 
1.257139e-01 
1 
1.257139e-01 
1.257139e-01 
