# vtk DataFile Version 2.0
simple_9_homogen_highAR_PD_026.vtk
ASCII

DATASET POLYDATA
POINTS 15 double
2.500000e-05 2.500000e-05 8.250000e-05 
2.475000e-04 2.500000e-05 8.250000e-05 
4.700000e-04 2.500000e-05 8.250000e-05 
2.500000e-05 2.475000e-04 8.250000e-05 
2.475000e-04 2.475000e-04 8.250000e-05 
4.700000e-04 2.475000e-04 8.250000e-05 
2.500000e-05 4.700000e-04 8.250000e-05 
2.475000e-04 4.700000e-04 8.250000e-05 
4.700000e-04 4.700000e-04 8.250000e-05 
-1.400000e-04 2.500000e-05 8.250000e-05 
6.350000e-04 2.500000e-05 8.250000e-05 
-1.400000e-04 2.475000e-04 8.250000e-05 
6.350000e-04 2.475000e-04 8.250000e-05 
-1.400000e-04 4.700000e-04 8.250000e-05 
6.350000e-04 4.700000e-04 8.250000e-05 
LINES 18 54
2 0 1 2 0 3 2 0 9 2 1 2 2 1 4 2 10 2 2 2 5 2 3 4 2 3 6 2 3 11 2 4 5 2 4 7 2 12 5 2 5 8 2 6 7 2 6 13 2 7 8 2 14 8 POINT_DATA  15 
SCALARS radius float  1 
LOOKUP_TABLE default
5.750000e-05 
5.750000e-05 
5.750000e-05 
5.750000e-05 
5.750000e-05 
5.750000e-05 
5.750000e-05 
5.750000e-05 
5.750000e-05 
0 
0 
0 
0 
0 
0 
SCALARS pressure float  1 
LOOKUP_TABLE default
8.027245e-01 
4.999763e-01 
1.972261e-01 
8.027407e-01 
4.999554e-01 
1.972233e-01 
8.027355e-01 
4.999482e-01 
1.972164e-01 
0 
1 
0 
1 
0 
1 
SCALARS wettingPhaseSaturation float  1 
LOOKUP_TABLE default
8.222990e-03 
8.222990e-03 
8.222990e-03 
8.222990e-03 
8.222990e-03 
8.222990e-03 
8.222990e-03 
8.222990e-03 
8.222990e-03 
0 
1 
0 
1 
0 
1 
CELL_DATA  18 
SCALARS radius float  1 
LOOKUP_TABLE default
2.500000e-05 
2.500000e-05 
2.500000e-05 
2.500000e-05 
2.500000e-05 
2.500000e-05 
2.500000e-05 
2.500000e-05 
2.500000e-05 
2.500000e-05 
2.500000e-05 
2.500000e-05 
2.500000e-05 
2.500000e-05 
2.500000e-05 
2.500000e-05 
2.500000e-05 
2.500000e-05 
SCALARS pressure float  1 
LOOKUP_TABLE default
6.513504e-01 
8.027326e-01 
9.013623e-01 
3.486012e-01 
4.999658e-01 
9.861304e-02 
1.972247e-01 
6.513480e-01 
8.027381e-01 
9.013703e-01 
3.485894e-01 
4.999518e-01 
9.861167e-02 
1.972199e-01 
6.513419e-01 
9.013677e-01 
3.485823e-01 
9.860819e-02 
SCALARS wettingPhaseSaturation float  1 
LOOKUP_TABLE default
4.349962e-02 
4.349962e-02 
4.349962e-02 
4.349962e-02 
4.349962e-02 
4.349962e-02 
4.349962e-02 
4.349962e-02 
4.349962e-02 
4.349962e-02 
4.349962e-02 
4.349962e-02 
4.349962e-02 
4.349962e-02 
4.349962e-02 
4.349962e-02 
4.349962e-02 
4.349962e-02 
