# vtk DataFile Version 2.0
simple_9_homogen_highAR_SI_004.vtk
ASCII

DATASET POLYDATA
POINTS 15 double
2.500000e-05 2.500000e-05 8.250000e-05 
2.475000e-04 2.500000e-05 8.250000e-05 
4.700000e-04 2.500000e-05 8.250000e-05 
2.500000e-05 2.475000e-04 8.250000e-05 
2.475000e-04 2.475000e-04 8.250000e-05 
4.700000e-04 2.475000e-04 8.250000e-05 
2.500000e-05 4.700000e-04 8.250000e-05 
2.475000e-04 4.700000e-04 8.250000e-05 
4.700000e-04 4.700000e-04 8.250000e-05 
-1.400000e-04 2.500000e-05 8.250000e-05 
6.350000e-04 2.500000e-05 8.250000e-05 
-1.400000e-04 2.475000e-04 8.250000e-05 
6.350000e-04 2.475000e-04 8.250000e-05 
-1.400000e-04 4.700000e-04 8.250000e-05 
6.350000e-04 4.700000e-04 8.250000e-05 
LINES 18 54
2 0 1 2 0 3 2 0 9 2 1 2 2 1 4 2 10 2 2 2 5 2 3 4 2 3 6 2 3 11 2 4 5 2 4 7 2 12 5 2 5 8 2 6 7 2 6 13 2 7 8 2 14 8 POINT_DATA  15 
SCALARS radius float  1 
LOOKUP_TABLE default
5.750000e-05 
5.750000e-05 
5.750000e-05 
5.750000e-05 
5.750000e-05 
5.750000e-05 
5.750000e-05 
5.750000e-05 
5.750000e-05 
0 
0 
0 
0 
0 
0 
SCALARS pressure float  1 
LOOKUP_TABLE default
8.027324e-01 
4.999830e-01 
1.972322e-01 
8.027439e-01 
4.999680e-01 
1.972302e-01 
8.027402e-01 
4.999628e-01 
1.972252e-01 
1 
0 
1 
0 
1 
0 
SCALARS wettingPhaseSaturation float  1 
LOOKUP_TABLE default
6.308521e-03 
6.308521e-03 
6.308521e-03 
6.308521e-03 
6.308521e-03 
6.308521e-03 
6.308521e-03 
6.308521e-03 
6.308521e-03 
1 
0 
1 
0 
1 
0 
CELL_DATA  18 
SCALARS radius float  1 
LOOKUP_TABLE default
2.500000e-05 
2.500000e-05 
2.500000e-05 
2.500000e-05 
2.500000e-05 
2.500000e-05 
2.500000e-05 
2.500000e-05 
2.500000e-05 
2.500000e-05 
2.500000e-05 
2.500000e-05 
2.500000e-05 
2.500000e-05 
2.500000e-05 
2.500000e-05 
2.500000e-05 
2.500000e-05 
SCALARS pressure float  1 
LOOKUP_TABLE default
6.513577e-01 
8.027382e-01 
9.013662e-01 
3.486076e-01 
4.999755e-01 
9.861608e-02 
1.972312e-01 
6.513560e-01 
8.027421e-01 
9.013720e-01 
3.485991e-01 
4.999654e-01 
9.861510e-02 
1.972277e-01 
6.513515e-01 
9.013701e-01 
3.485940e-01 
9.861260e-02 
SCALARS wettingPhaseSaturation float  1 
LOOKUP_TABLE default
3.337208e-02 
3.337208e-02 
3.337208e-02 
3.337208e-02 
3.337208e-02 
3.337208e-02 
3.337208e-02 
3.337208e-02 
3.337208e-02 
3.337208e-02 
3.337208e-02 
3.337208e-02 
3.337208e-02 
3.337208e-02 
3.337208e-02 
3.337208e-02 
3.337208e-02 
3.337208e-02 
