# vtk DataFile Version 2.0
simple_9_homogen_highAR_Initializing_000.vtk
ASCII

DATASET POLYDATA
POINTS 15 double
2.500000e-05 2.500000e-05 8.250000e-05 
2.475000e-04 2.500000e-05 8.250000e-05 
4.700000e-04 2.500000e-05 8.250000e-05 
2.500000e-05 2.475000e-04 8.250000e-05 
2.475000e-04 2.475000e-04 8.250000e-05 
4.700000e-04 2.475000e-04 8.250000e-05 
2.500000e-05 4.700000e-04 8.250000e-05 
2.475000e-04 4.700000e-04 8.250000e-05 
4.700000e-04 4.700000e-04 8.250000e-05 
-1.400000e-04 2.500000e-05 8.250000e-05 
6.350000e-04 2.500000e-05 8.250000e-05 
-1.400000e-04 2.475000e-04 8.250000e-05 
6.350000e-04 2.475000e-04 8.250000e-05 
-1.400000e-04 4.700000e-04 8.250000e-05 
6.350000e-04 4.700000e-04 8.250000e-05 
LINES 18 54
2 0 1 2 0 3 2 0 9 2 1 2 2 1 4 2 10 2 2 2 5 2 3 4 2 3 6 2 3 11 2 4 5 2 4 7 2 12 5 2 5 8 2 6 7 2 6 13 2 7 8 2 14 8 POINT_DATA  15 
SCALARS radius float  1 
LOOKUP_TABLE default
5.750000e-05 
5.750000e-05 
5.750000e-05 
5.750000e-05 
5.750000e-05 
5.750000e-05 
5.750000e-05 
5.750000e-05 
5.750000e-05 
5.750000e-05 
5.750000e-05 
5.750000e-05 
5.750000e-05 
5.750000e-05 
5.750000e-05 
SCALARS pressure float  1 
LOOKUP_TABLE default
7.548386e-01 
5.000000e-01 
2.451614e-01 
7.548386e-01 
5.000000e-01 
2.451614e-01 
7.548386e-01 
5.000000e-01 
2.451614e-01 
1 
0 
1 
0 
1 
0 
SCALARS ID float  1 
LOOKUP_TABLE default
1 
2 
3 
4 
5 
6 
7 
8 
9 
0 
0 
0 
0 
0 
0 
SCALARS poreLabel float  1 
LOOKUP_TABLE default
-1 
-1 
-1 
-1 
-1 
-1 
-1 
-1 
-1 
2 
3 
2 
3 
2 
3 
SCALARS networkPoreVolume_m3 float  1 
LOOKUP_TABLE default
1.980306e-12 
1.980306e-12 
1.980306e-12 
1.980306e-12 
1.980306e-12 
1.980306e-12 
1.980306e-12 
1.980306e-12 
1.980306e-12 
0 
0 
0 
0 
0 
0 
SCALARS poreLabelSub float  1 
LOOKUP_TABLE default
0 
0 
0 
0 
0 
0 
0 
0 
0 
0 
0 
0 
0 
0 
0 
CELL_DATA  18 
SCALARS throatLabel float  1 
LOOKUP_TABLE default
-1 
-1 
2 
-1 
-1 
3 
-1 
-1 
-1 
2 
-1 
-1 
3 
-1 
-1 
2 
-1 
3 
SCALARS throatID float  1 
LOOKUP_TABLE default
1 
2 
3 
4 
5 
6 
7 
8 
9 
10 
11 
12 
13 
14 
15 
16 
17 
18 
SCALARS throatLabelSub float  1 
LOOKUP_TABLE default
0 
0 
0 
0 
0 
0 
0 
0 
0 
0 
0 
0 
0 
0 
0 
0 
0 
0 
SCALARS theoatLength float  1 
LOOKUP_TABLE default
1.650000e-04 
1.650000e-04 
1.650000e-04 
1.650000e-04 
1.650000e-04 
1.650000e-04 
1.650000e-04 
1.650000e-04 
1.650000e-04 
1.650000e-04 
1.650000e-04 
1.650000e-04 
1.650000e-04 
1.650000e-04 
1.650000e-04 
1.650000e-04 
1.650000e-04 
1.650000e-04 
SCALARS radius float  1 
LOOKUP_TABLE default
2.500000e-05 
2.500000e-05 
2.500000e-05 
2.500000e-05 
2.500000e-05 
2.500000e-05 
2.500000e-05 
2.500000e-05 
2.500000e-05 
2.500000e-05 
2.500000e-05 
2.500000e-05 
2.500000e-05 
2.500000e-05 
2.500000e-05 
2.500000e-05 
2.500000e-05 
2.500000e-05 
SCALARS area float  1 
LOOKUP_TABLE default
3.255208e-09 
3.255208e-09 
3.255208e-09 
3.255208e-09 
3.255208e-09 
3.255208e-09 
3.255208e-09 
3.255208e-09 
3.255208e-09 
3.255208e-09 
3.255208e-09 
3.255208e-09 
3.255208e-09 
3.255208e-09 
3.255208e-09 
3.255208e-09 
3.255208e-09 
3.255208e-09 
SCALARS shapefactor float  1 
LOOKUP_TABLE default
4.800000e-02 
4.800000e-02 
4.800000e-02 
4.800000e-02 
4.800000e-02 
4.800000e-02 
4.800000e-02 
4.800000e-02 
4.800000e-02 
4.800000e-02 
4.800000e-02 
4.800000e-02 
4.800000e-02 
4.800000e-02 
4.800000e-02 
4.800000e-02 
4.800000e-02 
4.800000e-02 
SCALARS transmissibilityWithPores float  1 
LOOKUP_TABLE default
1.804605e-15 
1.804605e-15 
1.826801e-15 
1.804605e-15 
1.804605e-15 
1.826801e-15 
1.804605e-15 
1.804605e-15 
1.804605e-15 
1.826801e-15 
1.804605e-15 
1.804605e-15 
1.826801e-15 
1.804605e-15 
1.804605e-15 
1.826801e-15 
1.804605e-15 
1.826801e-15 
SCALARS transmissibility float  1 
LOOKUP_TABLE default
1.849550e-15 
1.849550e-15 
1.849550e-15 
1.849550e-15 
1.849550e-15 
1.849550e-15 
1.849550e-15 
1.849550e-15 
1.849550e-15 
1.849550e-15 
1.849550e-15 
1.849550e-15 
1.849550e-15 
1.849550e-15 
1.849550e-15 
1.849550e-15 
1.849550e-15 
1.849550e-15 
SCALARS pressure float  1 
LOOKUP_TABLE default
6.274193e-01 
7.548386e-01 
8.774193e-01 
3.725807e-01 
5.000000e-01 
1.225807e-01 
2.451614e-01 
6.274193e-01 
7.548386e-01 
8.774193e-01 
3.725807e-01 
5.000000e-01 
1.225807e-01 
2.451614e-01 
6.274193e-01 
8.774193e-01 
3.725807e-01 
1.225807e-01 
SCALARS volumeFlux float  1 
LOOKUP_TABLE default
4.488921e-13 
1.955632e-28 
4.318460e-13 
4.488921e-13 
1.075597e-27 
4.318460e-13 
9.778158e-29 
4.488921e-13 
1.955632e-28 
4.318460e-13 
4.488921e-13 
0 
4.318460e-13 
0 
4.488921e-13 
4.318460e-13 
4.488921e-13 
4.318460e-13 
