# vtk DataFile Version 2.0
simple_9_homogen_highAR_PD_013.vtk
ASCII

DATASET POLYDATA
POINTS 15 double
2.500000e-05 2.500000e-05 8.250000e-05 
2.475000e-04 2.500000e-05 8.250000e-05 
4.700000e-04 2.500000e-05 8.250000e-05 
2.500000e-05 2.475000e-04 8.250000e-05 
2.475000e-04 2.475000e-04 8.250000e-05 
4.700000e-04 2.475000e-04 8.250000e-05 
2.500000e-05 4.700000e-04 8.250000e-05 
2.475000e-04 4.700000e-04 8.250000e-05 
4.700000e-04 4.700000e-04 8.250000e-05 
-1.400000e-04 2.500000e-05 8.250000e-05 
6.350000e-04 2.500000e-05 8.250000e-05 
-1.400000e-04 2.475000e-04 8.250000e-05 
6.350000e-04 2.475000e-04 8.250000e-05 
-1.400000e-04 4.700000e-04 8.250000e-05 
6.350000e-04 4.700000e-04 8.250000e-05 
LINES 18 54
2 0 1 2 0 3 2 0 9 2 1 2 2 1 4 2 10 2 2 2 5 2 3 4 2 3 6 2 3 11 2 4 5 2 4 7 2 12 5 2 5 8 2 6 7 2 6 13 2 7 8 2 14 8 POINT_DATA  15 
SCALARS radius float  1 
LOOKUP_TABLE default
5.750000e-05 
5.750000e-05 
5.750000e-05 
5.750000e-05 
5.750000e-05 
5.750000e-05 
5.750000e-05 
5.750000e-05 
5.750000e-05 
0 
0 
0 
0 
0 
0 
SCALARS pressure float  1 
LOOKUP_TABLE default
8.341852e-01 
5.002279e-01 
2.452721e-01 
8.341835e-01 
5.002223e-01 
2.452700e-01 
8.341721e-01 
5.002124e-01 
2.452670e-01 
0 
1 
0 
1 
0 
1 
SCALARS wettingPhaseSaturation float  1 
LOOKUP_TABLE default
2.376444e-02 
1 
1 
2.376444e-02 
1 
1 
2.376444e-02 
1 
1 
0 
1 
0 
1 
0 
1 
CELL_DATA  18 
SCALARS radius float  1 
LOOKUP_TABLE default
2.500000e-05 
2.500000e-05 
2.500000e-05 
2.500000e-05 
2.500000e-05 
2.500000e-05 
2.500000e-05 
2.500000e-05 
2.500000e-05 
2.500000e-05 
2.500000e-05 
2.500000e-05 
2.500000e-05 
2.500000e-05 
2.500000e-05 
2.500000e-05 
2.500000e-05 
2.500000e-05 
SCALARS pressure float  1 
LOOKUP_TABLE default
6.672066e-01 
8.341844e-01 
9.170926e-01 
3.727500e-01 
5.002251e-01 
1.226361e-01 
2.452711e-01 
6.672029e-01 
8.341778e-01 
9.170918e-01 
3.727462e-01 
5.002174e-01 
1.226350e-01 
2.452685e-01 
6.671922e-01 
9.170860e-01 
3.727397e-01 
1.226335e-01 
SCALARS wettingPhaseSaturation float  1 
LOOKUP_TABLE default
1 
1 
1.257139e-01 
1 
1 
1 
1 
1 
1 
1.257139e-01 
1 
1 
1 
1 
1 
1.257139e-01 
1 
1 
