# vtk DataFile Version 2.0
simple_9_homogen_highAR_SI_012.vtk
ASCII

DATASET POLYDATA
POINTS 15 double
2.500000e-05 2.500000e-05 8.250000e-05 
2.475000e-04 2.500000e-05 8.250000e-05 
4.700000e-04 2.500000e-05 8.250000e-05 
2.500000e-05 2.475000e-04 8.250000e-05 
2.475000e-04 2.475000e-04 8.250000e-05 
4.700000e-04 2.475000e-04 8.250000e-05 
2.500000e-05 4.700000e-04 8.250000e-05 
2.475000e-04 4.700000e-04 8.250000e-05 
4.700000e-04 4.700000e-04 8.250000e-05 
-1.400000e-04 2.500000e-05 8.250000e-05 
6.350000e-04 2.500000e-05 8.250000e-05 
-1.400000e-04 2.475000e-04 8.250000e-05 
6.350000e-04 2.475000e-04 8.250000e-05 
-1.400000e-04 4.700000e-04 8.250000e-05 
6.350000e-04 4.700000e-04 8.250000e-05 
LINES 18 54
2 0 1 2 0 3 2 0 9 2 1 2 2 1 4 2 10 2 2 2 5 2 3 4 2 3 6 2 3 11 2 4 5 2 4 7 2 12 5 2 5 8 2 6 7 2 6 13 2 7 8 2 14 8 POINT_DATA  15 
SCALARS radius float  1 
LOOKUP_TABLE default
5.750000e-05 
5.750000e-05 
5.750000e-05 
5.750000e-05 
5.750000e-05 
5.750000e-05 
5.750000e-05 
5.750000e-05 
5.750000e-05 
0 
0 
0 
0 
0 
0 
SCALARS pressure float  1 
LOOKUP_TABLE default
4.595590e-01 
1.494894e-01 
2.206001e-02 
2.132424e-01 
1.344690e-01 
4.544219e-02 
2.051349e-01 
1.297135e-01 
4.954863e-02 
1 
0 
1 
0 
1 
0 
SCALARS wettingPhaseSaturation float  1 
LOOKUP_TABLE default
7.501214e-02 
7.501214e-02 
7.501214e-02 
7.501214e-02 
7.501214e-02 
7.501214e-02 
7.501214e-02 
7.501214e-02 
7.501214e-02 
1 
0 
1 
0 
1 
0 
CELL_DATA  18 
SCALARS radius float  1 
LOOKUP_TABLE default
2.500000e-05 
2.500000e-05 
2.500000e-05 
2.500000e-05 
2.500000e-05 
2.500000e-05 
2.500000e-05 
2.500000e-05 
2.500000e-05 
2.500000e-05 
2.500000e-05 
2.500000e-05 
2.500000e-05 
2.500000e-05 
2.500000e-05 
2.500000e-05 
2.500000e-05 
2.500000e-05 
SCALARS pressure float  1 
LOOKUP_TABLE default
3.045242e-01 
3.364007e-01 
7.297795e-01 
8.577472e-02 
1.419792e-01 
1.103001e-02 
3.375110e-02 
1.738557e-01 
2.091887e-01 
6.066212e-01 
8.995560e-02 
1.320913e-01 
2.272110e-02 
4.749541e-02 
1.674242e-01 
6.025675e-01 
8.963107e-02 
2.477432e-02 
SCALARS wettingPhaseSaturation float  1 
LOOKUP_TABLE default
1 
1 
1 
1 
3.968142e-01 
3.968142e-01 
3.968142e-01 
3.968142e-01 
3.968142e-01 
1 
3.968142e-01 
3.968142e-01 
3.968142e-01 
3.968142e-01 
3.968142e-01 
1 
3.968142e-01 
3.968142e-01 
