# vtk DataFile Version 2.0
simple_9_homogen_highAR_SI_004.vtk
ASCII

DATASET POLYDATA
POINTS 15 double
2.500000e-05 2.500000e-05 8.250000e-05 
2.475000e-04 2.500000e-05 8.250000e-05 
4.700000e-04 2.500000e-05 8.250000e-05 
2.500000e-05 2.475000e-04 8.250000e-05 
2.475000e-04 2.475000e-04 8.250000e-05 
4.700000e-04 2.475000e-04 8.250000e-05 
2.500000e-05 4.700000e-04 8.250000e-05 
2.475000e-04 4.700000e-04 8.250000e-05 
4.700000e-04 4.700000e-04 8.250000e-05 
-1.400000e-04 2.500000e-05 8.250000e-05 
6.350000e-04 2.500000e-05 8.250000e-05 
-1.400000e-04 2.475000e-04 8.250000e-05 
6.350000e-04 2.475000e-04 8.250000e-05 
-1.400000e-04 4.700000e-04 8.250000e-05 
6.350000e-04 4.700000e-04 8.250000e-05 
LINES 18 54
2 0 1 2 0 3 2 0 9 2 1 2 2 1 4 2 10 2 2 2 5 2 3 4 2 3 6 2 3 11 2 4 5 2 4 7 2 12 5 2 5 8 2 6 7 2 6 13 2 7 8 2 14 8 POINT_DATA  15 
SCALARS radius float  1 
LOOKUP_TABLE default
5.750000e-05 
5.750000e-05 
5.750000e-05 
5.750000e-05 
5.750000e-05 
5.750000e-05 
5.750000e-05 
5.750000e-05 
5.750000e-05 
0 
0 
0 
0 
0 
0 
SCALARS pressure float  1 
LOOKUP_TABLE default
8.027689e-01 
5.000416e-01 
1.972801e-01 
8.027702e-01 
5.000291e-01 
1.972821e-01 
8.027515e-01 
4.999989e-01 
1.972516e-01 
1 
0 
1 
0 
1 
0 
SCALARS wettingPhaseSaturation float  1 
LOOKUP_TABLE default
6.308521e-03 
6.308521e-03 
6.308521e-03 
6.308521e-03 
6.308521e-03 
6.308521e-03 
6.308521e-03 
6.308521e-03 
6.308521e-03 
1 
0 
1 
0 
1 
0 
CELL_DATA  18 
SCALARS radius float  1 
LOOKUP_TABLE default
2.500000e-05 
2.500000e-05 
2.500000e-05 
2.500000e-05 
2.500000e-05 
2.500000e-05 
2.500000e-05 
2.500000e-05 
2.500000e-05 
2.500000e-05 
2.500000e-05 
2.500000e-05 
2.500000e-05 
2.500000e-05 
2.500000e-05 
2.500000e-05 
2.500000e-05 
2.500000e-05 
SCALARS pressure float  1 
LOOKUP_TABLE default
6.514053e-01 
8.027695e-01 
9.013844e-01 
3.486609e-01 
5.000354e-01 
9.864007e-02 
1.972811e-01 
6.513997e-01 
8.027609e-01 
9.013851e-01 
3.486556e-01 
5.000140e-01 
9.864103e-02 
1.972668e-01 
6.513752e-01 
9.013758e-01 
3.486253e-01 
9.862581e-02 
SCALARS wettingPhaseSaturation float  1 
LOOKUP_TABLE default
3.337208e-02 
3.337208e-02 
3.337208e-02 
3.337208e-02 
3.337208e-02 
3.337208e-02 
3.337208e-02 
3.337208e-02 
3.337208e-02 
3.337208e-02 
3.337208e-02 
3.337208e-02 
3.337208e-02 
3.337208e-02 
3.337208e-02 
3.337208e-02 
3.337208e-02 
3.337208e-02 
