# vtk DataFile Version 2.0
simple_9_homogen_highAR_SI_022.vtk
ASCII

DATASET POLYDATA
POINTS 15 double
2.500000e-05 2.500000e-05 8.250000e-05 
2.475000e-04 2.500000e-05 8.250000e-05 
4.700000e-04 2.500000e-05 8.250000e-05 
2.500000e-05 2.475000e-04 8.250000e-05 
2.475000e-04 2.475000e-04 8.250000e-05 
4.700000e-04 2.475000e-04 8.250000e-05 
2.500000e-05 4.700000e-04 8.250000e-05 
2.475000e-04 4.700000e-04 8.250000e-05 
4.700000e-04 4.700000e-04 8.250000e-05 
-1.400000e-04 2.500000e-05 8.250000e-05 
6.350000e-04 2.500000e-05 8.250000e-05 
-1.400000e-04 2.475000e-04 8.250000e-05 
6.350000e-04 2.475000e-04 8.250000e-05 
-1.400000e-04 4.700000e-04 8.250000e-05 
6.350000e-04 4.700000e-04 8.250000e-05 
LINES 18 54
2 0 1 2 0 3 2 0 9 2 1 2 2 1 4 2 10 2 2 2 5 2 3 4 2 3 6 2 3 11 2 4 5 2 4 7 2 12 5 2 5 8 2 6 7 2 6 13 2 7 8 2 14 8 POINT_DATA  15 
SCALARS radius float  1 
LOOKUP_TABLE default
5.750000e-05 
5.750000e-05 
5.750000e-05 
5.750000e-05 
5.750000e-05 
5.750000e-05 
5.750000e-05 
5.750000e-05 
5.750000e-05 
0 
0 
0 
0 
0 
0 
SCALARS pressure float  1 
LOOKUP_TABLE default
6.838082e-01 
3.919426e-01 
1.731707e-01 
6.501546e-01 
3.188457e-01 
1.326773e-01 
5.876421e-01 
1.006044e-01 
4.260815e-02 
1 
0 
1 
0 
1 
0 
SCALARS wettingPhaseSaturation float  1 
LOOKUP_TABLE default
7.501214e-02 
7.501214e-02 
7.501214e-02 
7.501214e-02 
7.501214e-02 
7.501214e-02 
7.501214e-02 
7.501214e-02 
7.501214e-02 
1 
0 
1 
0 
1 
0 
CELL_DATA  18 
SCALARS radius float  1 
LOOKUP_TABLE default
2.500000e-05 
2.500000e-05 
2.500000e-05 
2.500000e-05 
2.500000e-05 
2.500000e-05 
2.500000e-05 
2.500000e-05 
2.500000e-05 
2.500000e-05 
2.500000e-05 
2.500000e-05 
2.500000e-05 
2.500000e-05 
2.500000e-05 
2.500000e-05 
2.500000e-05 
2.500000e-05 
SCALARS pressure float  1 
LOOKUP_TABLE default
5.378754e-01 
6.669814e-01 
8.419041e-01 
2.825566e-01 
3.553942e-01 
8.658535e-02 
1.529240e-01 
4.845002e-01 
6.188984e-01 
8.250773e-01 
2.257615e-01 
2.097251e-01 
6.633865e-02 
8.764273e-02 
3.441232e-01 
7.938211e-01 
7.160626e-02 
2.130408e-02 
SCALARS wettingPhaseSaturation float  1 
LOOKUP_TABLE default
1 
1 
1 
1 
1 
1 
1 
1 
1 
1 
1 
1 
1 
1 
1 
1 
3.968142e-01 
3.968142e-01 
