# vtk DataFile Version 2.0
_PD_016.vtk
ASCII

DATASET POLYDATA
POINTS 15 double
2.500000e-05 2.500000e-05 8.250000e-05 
2.475000e-04 2.500000e-05 8.250000e-05 
4.700000e-04 2.500000e-05 8.250000e-05 
2.500000e-05 2.475000e-04 8.250000e-05 
2.475000e-04 2.475000e-04 8.250000e-05 
4.700000e-04 2.475000e-04 8.250000e-05 
2.500000e-05 4.700000e-04 8.250000e-05 
2.475000e-04 4.700000e-04 8.250000e-05 
4.700000e-04 4.700000e-04 8.250000e-05 
-1.400000e-04 2.500000e-05 8.250000e-05 
6.350000e-04 2.500000e-05 8.250000e-05 
-1.400000e-04 2.475000e-04 8.250000e-05 
6.350000e-04 2.475000e-04 8.250000e-05 
-1.400000e-04 4.700000e-04 8.250000e-05 
6.350000e-04 4.700000e-04 8.250000e-05 
LINES 18 54
2 0 1 2 0 3 2 0 9 2 1 2 2 1 4 2 10 2 2 2 5 2 3 4 2 3 6 2 3 11 2 4 5 2 4 7 2 12 5 2 5 8 2 6 7 2 6 13 2 7 8 2 14 8 POINT_DATA  15 
SCALARS radius float  1 
LOOKUP_TABLE default
5.750000e-05 
5.750000e-05 
5.750000e-05 
5.750000e-05 
5.750000e-05 
5.750000e-05 
5.750000e-05 
5.750000e-05 
5.750000e-05 
0 
0 
0 
0 
0 
0 
SCALARS pressure float  1 
LOOKUP_TABLE default
8.314835e-01 
5.700558e-01 
3.014579e-01 
8.341974e-01 
5.817404e-01 
2.594997e-01 
8.349164e-01 
5.822647e-01 
2.511801e-01 
0 
1 
0 
1 
0 
1 
SCALARS wettingPhaseSaturation float  1 
LOOKUP_TABLE default
2.376444e-02 
2.376444e-02 
2.376444e-02 
2.376444e-02 
2.376444e-02 
1 
2.376444e-02 
2.376444e-02 
1 
0 
1 
0 
1 
0 
1 
CELL_DATA  18 
SCALARS radius float  1 
LOOKUP_TABLE default
2.500000e-05 
2.500000e-05 
2.500000e-05 
2.500000e-05 
2.500000e-05 
2.500000e-05 
2.500000e-05 
2.500000e-05 
2.500000e-05 
2.500000e-05 
2.500000e-05 
2.500000e-05 
2.500000e-05 
2.500000e-05 
2.500000e-05 
2.500000e-05 
2.500000e-05 
2.500000e-05 
SCALARS pressure float  1 
LOOKUP_TABLE default
7.007696e-01 
8.328405e-01 
9.157418e-01 
4.357568e-01 
5.758981e-01 
1.507289e-01 
2.804788e-01 
7.079689e-01 
8.345569e-01 
9.170987e-01 
4.206200e-01 
5.820025e-01 
1.297499e-01 
2.553399e-01 
7.085905e-01 
9.174582e-01 
4.167224e-01 
1.255901e-01 
SCALARS wettingPhaseSaturation float  1 
LOOKUP_TABLE default
1.257139e-01 
1.257139e-01 
1.257139e-01 
1.257139e-01 
1 
1 
1 
1.257139e-01 
1.257139e-01 
1.257139e-01 
1 
1 
1 
1 
1.257139e-01 
1.257139e-01 
1 
1 
