# vtk DataFile Version 2.0
_PD_026.vtk
ASCII

DATASET POLYDATA
POINTS 15 double
2.500000e-05 2.500000e-05 8.250000e-05 
2.475000e-04 2.500000e-05 8.250000e-05 
4.700000e-04 2.500000e-05 8.250000e-05 
2.500000e-05 2.475000e-04 8.250000e-05 
2.475000e-04 2.475000e-04 8.250000e-05 
4.700000e-04 2.475000e-04 8.250000e-05 
2.500000e-05 4.700000e-04 8.250000e-05 
2.475000e-04 4.700000e-04 8.250000e-05 
4.700000e-04 4.700000e-04 8.250000e-05 
-1.400000e-04 2.500000e-05 8.250000e-05 
6.350000e-04 2.500000e-05 8.250000e-05 
-1.400000e-04 2.475000e-04 8.250000e-05 
6.350000e-04 2.475000e-04 8.250000e-05 
-1.400000e-04 4.700000e-04 8.250000e-05 
6.350000e-04 4.700000e-04 8.250000e-05 
LINES 18 54
2 0 1 2 0 3 2 0 9 2 1 2 2 1 4 2 10 2 2 2 5 2 3 4 2 3 6 2 3 11 2 4 5 2 4 7 2 12 5 2 5 8 2 6 7 2 6 13 2 7 8 2 14 8 POINT_DATA  15 
SCALARS radius float  1 
LOOKUP_TABLE default
5.750000e-05 
5.750000e-05 
5.750000e-05 
5.750000e-05 
5.750000e-05 
5.750000e-05 
5.750000e-05 
5.750000e-05 
5.750000e-05 
0 
0 
0 
0 
0 
0 
SCALARS pressure float  1 
LOOKUP_TABLE default
8.027502e-01 
4.999535e-01 
1.972088e-01 
8.027209e-01 
4.999378e-01 
1.972096e-01 
8.027169e-01 
4.999228e-01 
1.972113e-01 
0 
1 
0 
1 
0 
1 
SCALARS wettingPhaseSaturation float  1 
LOOKUP_TABLE default
8.222990e-03 
8.222990e-03 
8.222990e-03 
8.222990e-03 
8.222990e-03 
8.222990e-03 
8.222990e-03 
8.222990e-03 
8.222990e-03 
0 
1 
0 
1 
0 
1 
CELL_DATA  18 
SCALARS radius float  1 
LOOKUP_TABLE default
2.500000e-05 
2.500000e-05 
2.500000e-05 
2.500000e-05 
2.500000e-05 
2.500000e-05 
2.500000e-05 
2.500000e-05 
2.500000e-05 
2.500000e-05 
2.500000e-05 
2.500000e-05 
2.500000e-05 
2.500000e-05 
2.500000e-05 
2.500000e-05 
2.500000e-05 
2.500000e-05 
SCALARS pressure float  1 
LOOKUP_TABLE default
6.513518e-01 
8.027355e-01 
9.013751e-01 
3.485812e-01 
4.999456e-01 
9.860442e-02 
1.972092e-01 
6.513293e-01 
8.027189e-01 
9.013605e-01 
3.485737e-01 
4.999303e-01 
9.860482e-02 
1.972105e-01 
6.513199e-01 
9.013585e-01 
3.485670e-01 
9.860563e-02 
SCALARS wettingPhaseSaturation float  1 
LOOKUP_TABLE default
4.349962e-02 
4.349962e-02 
4.349962e-02 
4.349962e-02 
4.349962e-02 
4.349962e-02 
4.349962e-02 
4.349962e-02 
4.349962e-02 
4.349962e-02 
4.349962e-02 
4.349962e-02 
4.349962e-02 
4.349962e-02 
4.349962e-02 
4.349962e-02 
4.349962e-02 
4.349962e-02 
