# vtk DataFile Version 2.0
simple_9_homogen_lowAR_SI_018.vtk
ASCII

DATASET POLYDATA
POINTS 15 double
2.500000e-05 2.500000e-05 5.750000e-05 
1.725000e-04 2.500000e-05 5.750000e-05 
3.200000e-04 2.500000e-05 5.750000e-05 
2.500000e-05 1.725000e-04 5.750000e-05 
1.725000e-04 1.725000e-04 5.750000e-05 
3.200000e-04 1.725000e-04 5.750000e-05 
2.500000e-05 3.200000e-04 5.750000e-05 
1.725000e-04 3.200000e-04 5.750000e-05 
3.200000e-04 3.200000e-04 5.750000e-05 
-9.000000e-05 2.500000e-05 5.750000e-05 
4.350000e-04 2.500000e-05 5.750000e-05 
-9.000000e-05 1.725000e-04 5.750000e-05 
4.350000e-04 1.725000e-04 5.750000e-05 
-9.000000e-05 3.200000e-04 5.750000e-05 
4.350000e-04 3.200000e-04 5.750000e-05 
LINES 18 54
2 0 1 2 0 3 2 0 9 2 1 2 2 1 4 2 10 2 2 2 5 2 3 4 2 3 6 2 3 11 2 4 5 2 4 7 2 12 5 2 5 8 2 6 7 2 6 13 2 7 8 2 14 8 POINT_DATA  15 
SCALARS radius float  1 
LOOKUP_TABLE default
3.250000e-05 
3.250000e-05 
3.250000e-05 
3.250000e-05 
3.250000e-05 
3.250000e-05 
3.250000e-05 
3.250000e-05 
3.250000e-05 
0 
0 
0 
0 
0 
0 
SCALARS pressure float  1 
LOOKUP_TABLE default
5.665329e-01 
2.974041e-01 
1.098694e-01 
3.518091e-01 
2.258047e-01 
9.597776e-02 
3.406490e-01 
2.198456e-01 
9.305301e-02 
1 
0 
1 
0 
1 
0 
SCALARS wettingPhaseSaturation float  1 
LOOKUP_TABLE default
1 
1 
1 
1.385996e-01 
1.385996e-01 
1.385996e-01 
1.385996e-01 
1.385996e-01 
1.385996e-01 
1 
0 
1 
0 
1 
0 
CELL_DATA  18 
SCALARS radius float  1 
LOOKUP_TABLE default
2.500000e-05 
2.500000e-05 
2.500000e-05 
2.500000e-05 
2.500000e-05 
2.500000e-05 
2.500000e-05 
2.500000e-05 
2.500000e-05 
2.500000e-05 
2.500000e-05 
2.500000e-05 
2.500000e-05 
2.500000e-05 
2.500000e-05 
2.500000e-05 
2.500000e-05 
2.500000e-05 
SCALARS pressure float  1 
LOOKUP_TABLE default
4.319685e-01 
4.591710e-01 
7.832665e-01 
2.036367e-01 
2.616044e-01 
5.493470e-02 
1.029236e-01 
2.888069e-01 
3.462291e-01 
6.759045e-01 
1.608913e-01 
2.228252e-01 
4.798888e-02 
9.451539e-02 
2.802473e-01 
6.703245e-01 
1.564493e-01 
4.652650e-02 
SCALARS wettingPhaseSaturation float  1 
LOOKUP_TABLE default
1 
1 
1 
1 
1 
1 
2.342333e-01 
2.342333e-01 
2.342333e-01 
1 
2.342333e-01 
2.342333e-01 
2.342333e-01 
2.342333e-01 
2.342333e-01 
1 
2.342333e-01 
2.342333e-01 
