# vtk DataFile Version 2.0
simple_9_homogen_lowAR_SI_002.vtk
ASCII

DATASET POLYDATA
POINTS 15 double
2.500000e-05 2.500000e-05 5.750000e-05 
1.725000e-04 2.500000e-05 5.750000e-05 
3.200000e-04 2.500000e-05 5.750000e-05 
2.500000e-05 1.725000e-04 5.750000e-05 
1.725000e-04 1.725000e-04 5.750000e-05 
3.200000e-04 1.725000e-04 5.750000e-05 
2.500000e-05 3.200000e-04 5.750000e-05 
1.725000e-04 3.200000e-04 5.750000e-05 
3.200000e-04 3.200000e-04 5.750000e-05 
-9.000000e-05 2.500000e-05 5.750000e-05 
4.350000e-04 2.500000e-05 5.750000e-05 
-9.000000e-05 1.725000e-04 5.750000e-05 
4.350000e-04 1.725000e-04 5.750000e-05 
-9.000000e-05 3.200000e-04 5.750000e-05 
4.350000e-04 3.200000e-04 5.750000e-05 
LINES 18 54
2 0 1 2 0 3 2 0 9 2 1 2 2 1 4 2 10 2 2 2 5 2 3 4 2 3 6 2 3 11 2 4 5 2 4 7 2 12 5 2 5 8 2 6 7 2 6 13 2 7 8 2 14 8 POINT_DATA  15 
SCALARS radius float  1 
LOOKUP_TABLE default
3.250000e-05 
3.250000e-05 
3.250000e-05 
3.250000e-05 
3.250000e-05 
3.250000e-05 
3.250000e-05 
3.250000e-05 
3.250000e-05 
0 
0 
0 
0 
0 
0 
SCALARS pressure float  1 
LOOKUP_TABLE default
7.911300e-01 
5.000201e-01 
2.088636e-01 
7.911478e-01 
5.000153e-01 
2.088730e-01 
7.911342e-01 
5.000295e-01 
2.088682e-01 
1 
0 
1 
0 
1 
0 
SCALARS wettingPhaseSaturation float  1 
LOOKUP_TABLE default
1.974679e-02 
1.974679e-02 
1.974679e-02 
1.974679e-02 
1.974679e-02 
1.974679e-02 
1.974679e-02 
1.974679e-02 
1.974679e-02 
1 
0 
1 
0 
1 
0 
CELL_DATA  18 
SCALARS radius float  1 
LOOKUP_TABLE default
2.500000e-05 
2.500000e-05 
2.500000e-05 
2.500000e-05 
2.500000e-05 
2.500000e-05 
2.500000e-05 
2.500000e-05 
2.500000e-05 
2.500000e-05 
2.500000e-05 
2.500000e-05 
2.500000e-05 
2.500000e-05 
2.500000e-05 
2.500000e-05 
2.500000e-05 
2.500000e-05 
SCALARS pressure float  1 
LOOKUP_TABLE default
6.455751e-01 
7.911389e-01 
8.955650e-01 
3.544418e-01 
5.000177e-01 
1.044318e-01 
2.088683e-01 
6.455816e-01 
7.911410e-01 
8.955739e-01 
3.544442e-01 
5.000224e-01 
1.044365e-01 
2.088706e-01 
6.455818e-01 
8.955671e-01 
3.544489e-01 
1.044341e-01 
SCALARS wettingPhaseSaturation float  1 
LOOKUP_TABLE default
3.337208e-02 
3.337208e-02 
3.337208e-02 
3.337208e-02 
3.337208e-02 
3.337208e-02 
3.337208e-02 
3.337208e-02 
3.337208e-02 
3.337208e-02 
3.337208e-02 
3.337208e-02 
3.337208e-02 
3.337208e-02 
3.337208e-02 
3.337208e-02 
3.337208e-02 
3.337208e-02 
