# vtk DataFile Version 2.0
simple_9_homogen_lowAR_SI_014.vtk
ASCII

DATASET POLYDATA
POINTS 15 double
2.500000e-05 2.500000e-05 5.750000e-05 
1.725000e-04 2.500000e-05 5.750000e-05 
3.200000e-04 2.500000e-05 5.750000e-05 
2.500000e-05 1.725000e-04 5.750000e-05 
1.725000e-04 1.725000e-04 5.750000e-05 
3.200000e-04 1.725000e-04 5.750000e-05 
2.500000e-05 3.200000e-04 5.750000e-05 
1.725000e-04 3.200000e-04 5.750000e-05 
3.200000e-04 3.200000e-04 5.750000e-05 
-9.000000e-05 2.500000e-05 5.750000e-05 
4.350000e-04 2.500000e-05 5.750000e-05 
-9.000000e-05 1.725000e-04 5.750000e-05 
4.350000e-04 1.725000e-04 5.750000e-05 
-9.000000e-05 3.200000e-04 5.750000e-05 
4.350000e-04 3.200000e-04 5.750000e-05 
LINES 18 54
2 0 1 2 0 3 2 0 9 2 1 2 2 1 4 2 10 2 2 2 5 2 3 4 2 3 6 2 3 11 2 4 5 2 4 7 2 12 5 2 5 8 2 6 7 2 6 13 2 7 8 2 14 8 POINT_DATA  15 
SCALARS radius float  1 
LOOKUP_TABLE default
3.250000e-05 
3.250000e-05 
3.250000e-05 
3.250000e-05 
3.250000e-05 
3.250000e-05 
3.250000e-05 
3.250000e-05 
3.250000e-05 
0 
0 
0 
0 
0 
0 
SCALARS pressure float  1 
LOOKUP_TABLE default
5.188059e-01 
1.676765e-01 
5.478046e-02 
3.263930e-01 
1.954408e-01 
7.530087e-02 
3.190024e-01 
1.983683e-01 
8.063273e-02 
1 
0 
1 
0 
1 
0 
SCALARS wettingPhaseSaturation float  1 
LOOKUP_TABLE default
1 
1 
1.385996e-01 
1.385996e-01 
1.385996e-01 
1.385996e-01 
1.385996e-01 
1.385996e-01 
1.385996e-01 
1 
0 
1 
0 
1 
0 
CELL_DATA  18 
SCALARS radius float  1 
LOOKUP_TABLE default
2.500000e-05 
2.500000e-05 
2.500000e-05 
2.500000e-05 
2.500000e-05 
2.500000e-05 
2.500000e-05 
2.500000e-05 
2.500000e-05 
2.500000e-05 
2.500000e-05 
2.500000e-05 
2.500000e-05 
2.500000e-05 
2.500000e-05 
2.500000e-05 
2.500000e-05 
2.500000e-05 
SCALARS pressure float  1 
LOOKUP_TABLE default
3.432412e-01 
4.225995e-01 
7.594030e-01 
1.112285e-01 
1.815586e-01 
2.739023e-02 
6.504067e-02 
2.609169e-01 
3.226977e-01 
6.631965e-01 
1.353708e-01 
1.969046e-01 
3.765043e-02 
7.796680e-02 
2.586854e-01 
6.595012e-01 
1.395005e-01 
4.031636e-02 
SCALARS wettingPhaseSaturation float  1 
LOOKUP_TABLE default
1 
1 
1 
2.342333e-01 
2.342333e-01 
2.342333e-01 
2.342333e-01 
2.342333e-01 
2.342333e-01 
1 
2.342333e-01 
2.342333e-01 
2.342333e-01 
2.342333e-01 
2.342333e-01 
1 
2.342333e-01 
2.342333e-01 
