# vtk DataFile Version 2.0
simple_9_homogen_lowAR_PD_015.vtk
ASCII

DATASET POLYDATA
POINTS 15 double
2.500000e-05 2.500000e-05 5.750000e-05 
1.725000e-04 2.500000e-05 5.750000e-05 
3.200000e-04 2.500000e-05 5.750000e-05 
2.500000e-05 1.725000e-04 5.750000e-05 
1.725000e-04 1.725000e-04 5.750000e-05 
3.200000e-04 1.725000e-04 5.750000e-05 
2.500000e-05 3.200000e-04 5.750000e-05 
1.725000e-04 3.200000e-04 5.750000e-05 
3.200000e-04 3.200000e-04 5.750000e-05 
-9.000000e-05 2.500000e-05 5.750000e-05 
4.350000e-04 2.500000e-05 5.750000e-05 
-9.000000e-05 1.725000e-04 5.750000e-05 
4.350000e-04 1.725000e-04 5.750000e-05 
-9.000000e-05 3.200000e-04 5.750000e-05 
4.350000e-04 3.200000e-04 5.750000e-05 
LINES 18 54
2 0 1 2 0 3 2 0 9 2 1 2 2 1 4 2 10 2 2 2 5 2 3 4 2 3 6 2 3 11 2 4 5 2 4 7 2 12 5 2 5 8 2 6 7 2 6 13 2 7 8 2 14 8 POINT_DATA  15 
SCALARS radius float  1 
LOOKUP_TABLE default
3.250000e-05 
3.250000e-05 
3.250000e-05 
3.250000e-05 
3.250000e-05 
3.250000e-05 
3.250000e-05 
3.250000e-05 
3.250000e-05 
0 
0 
0 
0 
0 
0 
SCALARS pressure float  1 
LOOKUP_TABLE default
8.342396e-01 
6.032274e-01 
3.721679e-01 
8.342583e-01 
6.032179e-01 
3.721619e-01 
8.342431e-01 
6.032339e-01 
3.721626e-01 
0 
1 
0 
1 
0 
1 
SCALARS wettingPhaseSaturation float  1 
LOOKUP_TABLE default
7.438692e-02 
7.438692e-02 
7.438692e-02 
7.438692e-02 
7.438692e-02 
7.438692e-02 
7.438692e-02 
7.438692e-02 
7.438692e-02 
0 
1 
0 
1 
0 
1 
CELL_DATA  18 
SCALARS radius float  1 
LOOKUP_TABLE default
2.500000e-05 
2.500000e-05 
2.500000e-05 
2.500000e-05 
2.500000e-05 
2.500000e-05 
2.500000e-05 
2.500000e-05 
2.500000e-05 
2.500000e-05 
2.500000e-05 
2.500000e-05 
2.500000e-05 
2.500000e-05 
2.500000e-05 
2.500000e-05 
2.500000e-05 
2.500000e-05 
SCALARS pressure float  1 
LOOKUP_TABLE default
7.187335e-01 
8.342490e-01 
9.171198e-01 
4.876976e-01 
6.032226e-01 
1.860839e-01 
3.721649e-01 
7.187381e-01 
8.342507e-01 
9.171291e-01 
4.876899e-01 
6.032259e-01 
1.860809e-01 
3.721622e-01 
7.187385e-01 
9.171216e-01 
4.876982e-01 
1.860813e-01 
SCALARS wettingPhaseSaturation float  1 
LOOKUP_TABLE default
1.257139e-01 
1.257139e-01 
1.257139e-01 
1.257139e-01 
1.257139e-01 
1 
1 
1.257139e-01 
1.257139e-01 
1.257139e-01 
1.257139e-01 
1.257139e-01 
1 
1 
1.257139e-01 
1.257139e-01 
1.257139e-01 
1 
