# vtk DataFile Version 2.0
simple_9_homogen_lowAR_SI_013.vtk
ASCII

DATASET POLYDATA
POINTS 15 double
2.500000e-05 2.500000e-05 5.750000e-05 
1.725000e-04 2.500000e-05 5.750000e-05 
3.200000e-04 2.500000e-05 5.750000e-05 
2.500000e-05 1.725000e-04 5.750000e-05 
1.725000e-04 1.725000e-04 5.750000e-05 
3.200000e-04 1.725000e-04 5.750000e-05 
2.500000e-05 3.200000e-04 5.750000e-05 
1.725000e-04 3.200000e-04 5.750000e-05 
3.200000e-04 3.200000e-04 5.750000e-05 
-9.000000e-05 2.500000e-05 5.750000e-05 
4.350000e-04 2.500000e-05 5.750000e-05 
-9.000000e-05 1.725000e-04 5.750000e-05 
4.350000e-04 1.725000e-04 5.750000e-05 
-9.000000e-05 3.200000e-04 5.750000e-05 
4.350000e-04 3.200000e-04 5.750000e-05 
LINES 18 54
2 0 1 2 0 3 2 0 9 2 1 2 2 1 4 2 10 2 2 2 5 2 3 4 2 3 6 2 3 11 2 4 5 2 4 7 2 12 5 2 5 8 2 6 7 2 6 13 2 7 8 2 14 8 POINT_DATA  15 
SCALARS radius float  1 
LOOKUP_TABLE default
3.250000e-05 
3.250000e-05 
3.250000e-05 
3.250000e-05 
3.250000e-05 
3.250000e-05 
3.250000e-05 
3.250000e-05 
3.250000e-05 
0 
0 
0 
0 
0 
0 
SCALARS pressure float  1 
LOOKUP_TABLE default
2.299981e-01 
1.403773e-01 
5.734648e-02 
2.342329e-01 
1.337724e-01 
5.425887e-02 
4.516375e-01 
1.062260e-01 
4.728475e-02 
1 
0 
1 
0 
1 
0 
SCALARS wettingPhaseSaturation float  1 
LOOKUP_TABLE default
1.711164e-01 
1.711164e-01 
1.711164e-01 
1.711164e-01 
1.711164e-01 
1.711164e-01 
1 
1.711164e-01 
1.711164e-01 
1 
0 
1 
0 
1 
0 
CELL_DATA  18 
SCALARS radius float  1 
LOOKUP_TABLE default
2.500000e-05 
2.500000e-05 
2.500000e-05 
2.500000e-05 
2.500000e-05 
2.500000e-05 
2.500000e-05 
2.500000e-05 
2.500000e-05 
2.500000e-05 
2.500000e-05 
2.500000e-05 
2.500000e-05 
2.500000e-05 
2.500000e-05 
2.500000e-05 
2.500000e-05 
2.500000e-05 
SCALARS pressure float  1 
LOOKUP_TABLE default
1.851877e-01 
2.321155e-01 
6.149990e-01 
9.886192e-02 
1.370749e-01 
2.867324e-02 
5.580268e-02 
1.840027e-01 
3.429352e-01 
6.171165e-01 
9.401563e-02 
1.199992e-01 
2.712944e-02 
5.077181e-02 
2.789318e-01 
7.258187e-01 
7.675540e-02 
2.364237e-02 
SCALARS wettingPhaseSaturation float  1 
LOOKUP_TABLE default
2.891867e-01 
2.891867e-01 
1 
2.891867e-01 
2.891867e-01 
2.891867e-01 
2.891867e-01 
2.891867e-01 
1 
1 
2.891867e-01 
2.891867e-01 
2.891867e-01 
2.891867e-01 
1 
1 
2.891867e-01 
2.891867e-01 
