# vtk DataFile Version 2.0
simple_9_homogen_lowAR_SI_011.vtk
ASCII

DATASET POLYDATA
POINTS 15 double
2.500000e-05 2.500000e-05 5.750000e-05 
1.725000e-04 2.500000e-05 5.750000e-05 
3.200000e-04 2.500000e-05 5.750000e-05 
2.500000e-05 1.725000e-04 5.750000e-05 
1.725000e-04 1.725000e-04 5.750000e-05 
3.200000e-04 1.725000e-04 5.750000e-05 
2.500000e-05 3.200000e-04 5.750000e-05 
1.725000e-04 3.200000e-04 5.750000e-05 
3.200000e-04 3.200000e-04 5.750000e-05 
-9.000000e-05 2.500000e-05 5.750000e-05 
4.350000e-04 2.500000e-05 5.750000e-05 
-9.000000e-05 1.725000e-04 5.750000e-05 
4.350000e-04 1.725000e-04 5.750000e-05 
-9.000000e-05 3.200000e-04 5.750000e-05 
4.350000e-04 3.200000e-04 5.750000e-05 
LINES 18 54
2 0 1 2 0 3 2 0 9 2 1 2 2 1 4 2 10 2 2 2 5 2 3 4 2 3 6 2 3 11 2 4 5 2 4 7 2 12 5 2 5 8 2 6 7 2 6 13 2 7 8 2 14 8 POINT_DATA  15 
SCALARS radius float  1 
LOOKUP_TABLE default
3.250000e-05 
3.250000e-05 
3.250000e-05 
3.250000e-05 
3.250000e-05 
3.250000e-05 
3.250000e-05 
3.250000e-05 
3.250000e-05 
0 
0 
0 
0 
0 
0 
SCALARS pressure float  1 
LOOKUP_TABLE default
2.322752e-01 
1.440092e-01 
5.941693e-02 
2.354074e-01 
1.403204e-01 
5.765443e-02 
2.716861e-01 
1.242151e-01 
5.358537e-02 
1 
0 
1 
0 
1 
0 
SCALARS wettingPhaseSaturation float  1 
LOOKUP_TABLE default
1.711164e-01 
1.711164e-01 
1.711164e-01 
1.711164e-01 
1.711164e-01 
1.711164e-01 
1 
1.711164e-01 
1.711164e-01 
1 
0 
1 
0 
1 
0 
CELL_DATA  18 
SCALARS radius float  1 
LOOKUP_TABLE default
2.500000e-05 
2.500000e-05 
2.500000e-05 
2.500000e-05 
2.500000e-05 
2.500000e-05 
2.500000e-05 
2.500000e-05 
2.500000e-05 
2.500000e-05 
2.500000e-05 
2.500000e-05 
2.500000e-05 
2.500000e-05 
2.500000e-05 
2.500000e-05 
2.500000e-05 
2.500000e-05 
SCALARS pressure float  1 
LOOKUP_TABLE default
1.881422e-01 
2.338413e-01 
6.161376e-01 
1.017131e-01 
1.421648e-01 
2.970847e-02 
5.853568e-02 
1.878639e-01 
2.535467e-01 
6.177037e-01 
9.898742e-02 
1.322677e-01 
2.882721e-02 
5.561990e-02 
1.979506e-01 
6.358430e-01 
8.890021e-02 
2.679268e-02 
SCALARS wettingPhaseSaturation float  1 
LOOKUP_TABLE default
2.891867e-01 
2.891867e-01 
1 
2.891867e-01 
2.891867e-01 
2.891867e-01 
2.891867e-01 
2.891867e-01 
2.891867e-01 
1 
2.891867e-01 
2.891867e-01 
2.891867e-01 
2.891867e-01 
2.891867e-01 
1 
2.891867e-01 
2.891867e-01 
