# vtk DataFile Version 2.0
simple_9_homogen_lowAR_Initializing_000.vtk
ASCII

DATASET POLYDATA
POINTS 15 double
2.500000e-05 2.500000e-05 5.750000e-05 
1.725000e-04 2.500000e-05 5.750000e-05 
3.200000e-04 2.500000e-05 5.750000e-05 
2.500000e-05 1.725000e-04 5.750000e-05 
1.725000e-04 1.725000e-04 5.750000e-05 
3.200000e-04 1.725000e-04 5.750000e-05 
2.500000e-05 3.200000e-04 5.750000e-05 
1.725000e-04 3.200000e-04 5.750000e-05 
3.200000e-04 3.200000e-04 5.750000e-05 
-9.000000e-05 2.500000e-05 5.750000e-05 
4.350000e-04 2.500000e-05 5.750000e-05 
-9.000000e-05 1.725000e-04 5.750000e-05 
4.350000e-04 1.725000e-04 5.750000e-05 
-9.000000e-05 3.200000e-04 5.750000e-05 
4.350000e-04 3.200000e-04 5.750000e-05 
LINES 18 54
2 0 1 2 0 3 2 0 9 2 1 2 2 1 4 2 10 2 2 2 5 2 3 4 2 3 6 2 3 11 2 4 5 2 4 7 2 12 5 2 5 8 2 6 7 2 6 13 2 7 8 2 14 8 POINT_DATA  15 
SCALARS radius float  1 
LOOKUP_TABLE default
3.250000e-05 
3.250000e-05 
3.250000e-05 
3.250000e-05 
3.250000e-05 
3.250000e-05 
3.250000e-05 
3.250000e-05 
3.250000e-05 
3.250000e-05 
3.250000e-05 
3.250000e-05 
3.250000e-05 
3.250000e-05 
3.250000e-05 
SCALARS pressure float  1 
LOOKUP_TABLE default
7.712080e-01 
5.000000e-01 
2.287920e-01 
7.712080e-01 
5.000000e-01 
2.287920e-01 
7.712080e-01 
5.000000e-01 
2.287920e-01 
1 
0 
1 
0 
1 
0 
SCALARS ID float  1 
LOOKUP_TABLE default
1 
2 
3 
4 
5 
6 
7 
8 
9 
0 
0 
0 
0 
0 
0 
SCALARS poreLabel float  1 
LOOKUP_TABLE default
-1 
-1 
-1 
-1 
-1 
-1 
-1 
-1 
-1 
2 
3 
2 
3 
2 
3 
SCALARS networkPoreVolume_m3 float  1 
LOOKUP_TABLE default
3.575846e-13 
3.575846e-13 
3.575846e-13 
3.575846e-13 
3.575846e-13 
3.575846e-13 
3.575846e-13 
3.575846e-13 
3.575846e-13 
0 
0 
0 
0 
0 
0 
SCALARS poreLabelSub float  1 
LOOKUP_TABLE default
0 
0 
0 
0 
0 
0 
0 
0 
0 
0 
0 
0 
0 
0 
0 
CELL_DATA  18 
SCALARS throatLabel float  1 
LOOKUP_TABLE default
-1 
-1 
2 
-1 
-1 
3 
-1 
-1 
-1 
2 
-1 
-1 
3 
-1 
-1 
2 
-1 
3 
SCALARS throatID float  1 
LOOKUP_TABLE default
1 
2 
3 
4 
5 
6 
7 
8 
9 
10 
11 
12 
13 
14 
15 
16 
17 
18 
SCALARS throatLabelSub float  1 
LOOKUP_TABLE default
0 
0 
0 
0 
0 
0 
0 
0 
0 
0 
0 
0 
0 
0 
0 
0 
0 
0 
SCALARS theoatLength float  1 
LOOKUP_TABLE default
1.150000e-04 
1.150000e-04 
1.150000e-04 
1.150000e-04 
1.150000e-04 
1.150000e-04 
1.150000e-04 
1.150000e-04 
1.150000e-04 
1.150000e-04 
1.150000e-04 
1.150000e-04 
1.150000e-04 
1.150000e-04 
1.150000e-04 
1.150000e-04 
1.150000e-04 
1.150000e-04 
SCALARS radius float  1 
LOOKUP_TABLE default
2.500000e-05 
2.500000e-05 
2.500000e-05 
2.500000e-05 
2.500000e-05 
2.500000e-05 
2.500000e-05 
2.500000e-05 
2.500000e-05 
2.500000e-05 
2.500000e-05 
2.500000e-05 
2.500000e-05 
2.500000e-05 
2.500000e-05 
2.500000e-05 
2.500000e-05 
2.500000e-05 
SCALARS area float  1 
LOOKUP_TABLE default
3.255208e-09 
3.255208e-09 
3.255208e-09 
3.255208e-09 
3.255208e-09 
3.255208e-09 
3.255208e-09 
3.255208e-09 
3.255208e-09 
3.255208e-09 
3.255208e-09 
3.255208e-09 
3.255208e-09 
3.255208e-09 
3.255208e-09 
3.255208e-09 
3.255208e-09 
3.255208e-09 
SCALARS shapefactor float  1 
LOOKUP_TABLE default
4.800000e-02 
4.800000e-02 
4.800000e-02 
4.800000e-02 
4.800000e-02 
4.800000e-02 
4.800000e-02 
4.800000e-02 
4.800000e-02 
4.800000e-02 
4.800000e-02 
4.800000e-02 
4.800000e-02 
4.800000e-02 
4.800000e-02 
4.800000e-02 
4.800000e-02 
4.800000e-02 
SCALARS transmissibilityWithPores float  1 
LOOKUP_TABLE default
2.215299e-15 
2.215299e-15 
2.414764e-15 
2.215299e-15 
2.215299e-15 
2.414764e-15 
2.215299e-15 
2.215299e-15 
2.215299e-15 
2.414764e-15 
2.215299e-15 
2.215299e-15 
2.414764e-15 
2.215299e-15 
2.215299e-15 
2.414764e-15 
2.215299e-15 
2.414764e-15 
SCALARS transmissibility float  1 
LOOKUP_TABLE default
2.653702e-15 
2.653702e-15 
2.653702e-15 
2.653702e-15 
2.653702e-15 
2.653702e-15 
2.653702e-15 
2.653702e-15 
2.653702e-15 
2.653702e-15 
2.653702e-15 
2.653702e-15 
2.653702e-15 
2.653702e-15 
2.653702e-15 
2.653702e-15 
2.653702e-15 
2.653702e-15 
SCALARS pressure float  1 
LOOKUP_TABLE default
6.356040e-01 
7.712080e-01 
8.856040e-01 
3.643960e-01 
5.000000e-01 
1.143960e-01 
2.287920e-01 
6.356040e-01 
7.712080e-01 
8.856040e-01 
3.643960e-01 
5.000000e-01 
1.143960e-01 
2.287920e-01 
6.356040e-01 
8.856040e-01 
3.643960e-01 
1.143960e-01 
SCALARS volumeFlux float  1 
LOOKUP_TABLE default
6.854337e-13 
0 
5.782342e-13 
6.854337e-13 
5.611812e-28 
5.782342e-13 
0 
6.854337e-13 
2.805906e-28 
5.782342e-13 
6.854337e-13 
2.805906e-28 
5.782342e-13 
0 
6.854337e-13 
5.782342e-13 
6.854337e-13 
5.782342e-13 
