# vtk DataFile Version 2.0
simple_9_homogen_lowAR_SI_009.vtk
ASCII

DATASET POLYDATA
POINTS 15 double
2.500000e-05 2.500000e-05 5.750000e-05 
1.725000e-04 2.500000e-05 5.750000e-05 
3.200000e-04 2.500000e-05 5.750000e-05 
2.500000e-05 1.725000e-04 5.750000e-05 
1.725000e-04 1.725000e-04 5.750000e-05 
3.200000e-04 1.725000e-04 5.750000e-05 
2.500000e-05 3.200000e-04 5.750000e-05 
1.725000e-04 3.200000e-04 5.750000e-05 
3.200000e-04 3.200000e-04 5.750000e-05 
-9.000000e-05 2.500000e-05 5.750000e-05 
4.350000e-04 2.500000e-05 5.750000e-05 
-9.000000e-05 1.725000e-04 5.750000e-05 
4.350000e-04 1.725000e-04 5.750000e-05 
-9.000000e-05 3.200000e-04 5.750000e-05 
4.350000e-04 3.200000e-04 5.750000e-05 
LINES 18 54
2 0 1 2 0 3 2 0 9 2 1 2 2 1 4 2 10 2 2 2 5 2 3 4 2 3 6 2 3 11 2 4 5 2 4 7 2 12 5 2 5 8 2 6 7 2 6 13 2 7 8 2 14 8 POINT_DATA  15 
SCALARS radius float  1 
LOOKUP_TABLE default
3.250000e-05 
3.250000e-05 
3.250000e-05 
3.250000e-05 
3.250000e-05 
3.250000e-05 
3.250000e-05 
3.250000e-05 
3.250000e-05 
0 
0 
0 
0 
0 
0 
SCALARS pressure float  1 
LOOKUP_TABLE default
5.843167e-01 
3.693071e-01 
1.542634e-01 
5.843280e-01 
3.693034e-01 
1.542704e-01 
5.843214e-01 
3.693147e-01 
1.542670e-01 
1 
0 
1 
0 
1 
0 
SCALARS wettingPhaseSaturation float  1 
LOOKUP_TABLE default
7.438692e-02 
7.438692e-02 
7.438692e-02 
7.438692e-02 
7.438692e-02 
7.438692e-02 
7.438692e-02 
7.438692e-02 
7.438692e-02 
1 
0 
1 
0 
1 
0 
CELL_DATA  18 
SCALARS radius float  1 
LOOKUP_TABLE default
2.500000e-05 
2.500000e-05 
2.500000e-05 
2.500000e-05 
2.500000e-05 
2.500000e-05 
2.500000e-05 
2.500000e-05 
2.500000e-05 
2.500000e-05 
2.500000e-05 
2.500000e-05 
2.500000e-05 
2.500000e-05 
2.500000e-05 
2.500000e-05 
2.500000e-05 
2.500000e-05 
SCALARS pressure float  1 
LOOKUP_TABLE default
4.768119e-01 
5.843223e-01 
7.921583e-01 
2.617853e-01 
3.693053e-01 
7.713171e-02 
1.542669e-01 
4.768157e-01 
5.843247e-01 
7.921640e-01 
2.617869e-01 
3.693090e-01 
7.713518e-02 
1.542687e-01 
4.768180e-01 
7.921607e-01 
2.617909e-01 
7.713352e-02 
SCALARS wettingPhaseSaturation float  1 
LOOKUP_TABLE default
1.257139e-01 
1.257139e-01 
1 
1.257139e-01 
1.257139e-01 
1.257139e-01 
1.257139e-01 
1.257139e-01 
1.257139e-01 
1 
1.257139e-01 
1.257139e-01 
1.257139e-01 
1.257139e-01 
1.257139e-01 
1 
1.257139e-01 
1.257139e-01 
