# vtk DataFile Version 2.0
simple_9_homogen_lowAR_SI_012.vtk
ASCII

DATASET POLYDATA
POINTS 15 double
2.500000e-05 2.500000e-05 5.750000e-05 
1.725000e-04 2.500000e-05 5.750000e-05 
3.200000e-04 2.500000e-05 5.750000e-05 
2.500000e-05 1.725000e-04 5.750000e-05 
1.725000e-04 1.725000e-04 5.750000e-05 
3.200000e-04 1.725000e-04 5.750000e-05 
2.500000e-05 3.200000e-04 5.750000e-05 
1.725000e-04 3.200000e-04 5.750000e-05 
3.200000e-04 3.200000e-04 5.750000e-05 
-9.000000e-05 2.500000e-05 5.750000e-05 
4.350000e-04 2.500000e-05 5.750000e-05 
-9.000000e-05 1.725000e-04 5.750000e-05 
4.350000e-04 1.725000e-04 5.750000e-05 
-9.000000e-05 3.200000e-04 5.750000e-05 
4.350000e-04 3.200000e-04 5.750000e-05 
LINES 18 54
2 0 1 2 0 3 2 0 9 2 1 2 2 1 4 2 10 2 2 2 5 2 3 4 2 3 6 2 3 11 2 4 5 2 4 7 2 12 5 2 5 8 2 6 7 2 6 13 2 7 8 2 14 8 POINT_DATA  15 
SCALARS radius float  1 
LOOKUP_TABLE default
3.250000e-05 
3.250000e-05 
3.250000e-05 
3.250000e-05 
3.250000e-05 
3.250000e-05 
3.250000e-05 
3.250000e-05 
3.250000e-05 
0 
0 
0 
0 
0 
0 
SCALARS pressure float  1 
LOOKUP_TABLE default
2.282878e-01 
1.419206e-01 
5.869227e-02 
2.290784e-01 
1.387667e-01 
5.728359e-02 
2.906277e-01 
1.267882e-01 
5.423424e-02 
1 
0 
1 
0 
1 
0 
SCALARS wettingPhaseSaturation float  1 
LOOKUP_TABLE default
1.711164e-01 
1.711164e-01 
1.711164e-01 
1.711164e-01 
1.711164e-01 
1.711164e-01 
1 
1.711164e-01 
1.711164e-01 
1 
0 
1 
0 
1 
0 
CELL_DATA  18 
SCALARS radius float  1 
LOOKUP_TABLE default
2.500000e-05 
2.500000e-05 
2.500000e-05 
2.500000e-05 
2.500000e-05 
2.500000e-05 
2.500000e-05 
2.500000e-05 
2.500000e-05 
2.500000e-05 
2.500000e-05 
2.500000e-05 
2.500000e-05 
2.500000e-05 
2.500000e-05 
2.500000e-05 
2.500000e-05 
2.500000e-05 
SCALARS pressure float  1 
LOOKUP_TABLE default
1.851042e-01 
2.286831e-01 
6.141439e-01 
1.003064e-01 
1.403437e-01 
2.934614e-02 
5.798793e-02 
1.839226e-01 
2.598531e-01 
6.145392e-01 
9.802517e-02 
1.327775e-01 
2.864180e-02 
5.575892e-02 
2.087080e-01 
6.453139e-01 
9.051123e-02 
2.711712e-02 
SCALARS wettingPhaseSaturation float  1 
LOOKUP_TABLE default
2.891867e-01 
2.891867e-01 
1 
2.891867e-01 
2.891867e-01 
2.891867e-01 
2.891867e-01 
2.891867e-01 
1 
1 
2.891867e-01 
2.891867e-01 
2.891867e-01 
2.891867e-01 
2.891867e-01 
1 
2.891867e-01 
2.891867e-01 
