# vtk DataFile Version 2.0
simple_9_homogen_lowAR_SI_011.vtk
ASCII

DATASET POLYDATA
POINTS 15 double
2.500000e-05 2.500000e-05 5.750000e-05 
1.725000e-04 2.500000e-05 5.750000e-05 
3.200000e-04 2.500000e-05 5.750000e-05 
2.500000e-05 1.725000e-04 5.750000e-05 
1.725000e-04 1.725000e-04 5.750000e-05 
3.200000e-04 1.725000e-04 5.750000e-05 
2.500000e-05 3.200000e-04 5.750000e-05 
1.725000e-04 3.200000e-04 5.750000e-05 
3.200000e-04 3.200000e-04 5.750000e-05 
-9.000000e-05 2.500000e-05 5.750000e-05 
4.350000e-04 2.500000e-05 5.750000e-05 
-9.000000e-05 1.725000e-04 5.750000e-05 
4.350000e-04 1.725000e-04 5.750000e-05 
-9.000000e-05 3.200000e-04 5.750000e-05 
4.350000e-04 3.200000e-04 5.750000e-05 
LINES 18 54
2 0 1 2 0 3 2 0 9 2 1 2 2 1 4 2 10 2 2 2 5 2 3 4 2 3 6 2 3 11 2 4 5 2 4 7 2 12 5 2 5 8 2 6 7 2 6 13 2 7 8 2 14 8 POINT_DATA  15 
SCALARS radius float  1 
LOOKUP_TABLE default
3.250000e-05 
3.250000e-05 
3.250000e-05 
3.250000e-05 
3.250000e-05 
3.250000e-05 
3.250000e-05 
3.250000e-05 
3.250000e-05 
0 
0 
0 
0 
0 
0 
SCALARS pressure float  1 
LOOKUP_TABLE default
3.378979e-01 
1.724320e-01 
7.379889e-02 
3.131016e-01 
1.891962e-01 
7.804573e-02 
3.104864e-01 
1.932108e-01 
7.992193e-02 
1 
0 
1 
0 
1 
0 
SCALARS wettingPhaseSaturation float  1 
LOOKUP_TABLE default
1 
1.385996e-01 
1.385996e-01 
1.385996e-01 
1.385996e-01 
1.385996e-01 
1.385996e-01 
1.385996e-01 
1.385996e-01 
1 
0 
1 
0 
1 
0 
CELL_DATA  18 
SCALARS radius float  1 
LOOKUP_TABLE default
2.500000e-05 
2.500000e-05 
2.500000e-05 
2.500000e-05 
2.500000e-05 
2.500000e-05 
2.500000e-05 
2.500000e-05 
2.500000e-05 
2.500000e-05 
2.500000e-05 
2.500000e-05 
2.500000e-05 
2.500000e-05 
2.500000e-05 
2.500000e-05 
2.500000e-05 
2.500000e-05 
SCALARS pressure float  1 
LOOKUP_TABLE default
2.551649e-01 
3.254997e-01 
6.689489e-01 
1.231154e-01 
1.808141e-01 
3.689945e-02 
7.592231e-02 
2.511489e-01 
3.117940e-01 
6.565508e-01 
1.336209e-01 
1.912035e-01 
3.902286e-02 
7.898383e-02 
2.518486e-01 
6.552432e-01 
1.365664e-01 
3.996097e-02 
SCALARS wettingPhaseSaturation float  1 
LOOKUP_TABLE default
2.342333e-01 
2.342333e-01 
1 
2.342333e-01 
2.342333e-01 
2.342333e-01 
2.342333e-01 
2.342333e-01 
2.342333e-01 
1 
2.342333e-01 
2.342333e-01 
2.342333e-01 
2.342333e-01 
2.342333e-01 
1 
2.342333e-01 
2.342333e-01 
