# vtk DataFile Version 2.0
simple_9_homogen_lowAR_SI_017.vtk
ASCII

DATASET POLYDATA
POINTS 15 double
2.500000e-05 2.500000e-05 5.750000e-05 
1.725000e-04 2.500000e-05 5.750000e-05 
3.200000e-04 2.500000e-05 5.750000e-05 
2.500000e-05 1.725000e-04 5.750000e-05 
1.725000e-04 1.725000e-04 5.750000e-05 
3.200000e-04 1.725000e-04 5.750000e-05 
2.500000e-05 3.200000e-04 5.750000e-05 
1.725000e-04 3.200000e-04 5.750000e-05 
3.200000e-04 3.200000e-04 5.750000e-05 
-9.000000e-05 2.500000e-05 5.750000e-05 
4.350000e-04 2.500000e-05 5.750000e-05 
-9.000000e-05 1.725000e-04 5.750000e-05 
4.350000e-04 1.725000e-04 5.750000e-05 
-9.000000e-05 3.200000e-04 5.750000e-05 
4.350000e-04 3.200000e-04 5.750000e-05 
LINES 18 54
2 0 1 2 0 3 2 0 9 2 1 2 2 1 4 2 10 2 2 2 5 2 3 4 2 3 6 2 3 11 2 4 5 2 4 7 2 12 5 2 5 8 2 6 7 2 6 13 2 7 8 2 14 8 POINT_DATA  15 
SCALARS radius float  1 
LOOKUP_TABLE default
3.250000e-05 
3.250000e-05 
3.250000e-05 
3.250000e-05 
3.250000e-05 
3.250000e-05 
3.250000e-05 
3.250000e-05 
3.250000e-05 
0 
0 
0 
0 
0 
0 
SCALARS pressure float  1 
LOOKUP_TABLE default
3.129278e-01 
1.019495e-01 
4.078427e-02 
4.897850e-01 
8.511461e-02 
3.647355e-02 
5.292083e-01 
8.014314e-02 
3.435951e-02 
1 
0 
1 
0 
1 
0 
SCALARS wettingPhaseSaturation float  1 
LOOKUP_TABLE default
1 
1.711164e-01 
1.711164e-01 
1 
1.711164e-01 
1.711164e-01 
1 
1.711164e-01 
1.711164e-01 
1 
0 
1 
0 
1 
0 
CELL_DATA  18 
SCALARS radius float  1 
LOOKUP_TABLE default
2.500000e-05 
2.500000e-05 
2.500000e-05 
2.500000e-05 
2.500000e-05 
2.500000e-05 
2.500000e-05 
2.500000e-05 
2.500000e-05 
2.500000e-05 
2.500000e-05 
2.500000e-05 
2.500000e-05 
2.500000e-05 
2.500000e-05 
2.500000e-05 
2.500000e-05 
2.500000e-05 
SCALARS pressure float  1 
LOOKUP_TABLE default
2.074387e-01 
4.013564e-01 
6.564639e-01 
7.136690e-02 
9.353207e-02 
2.039214e-02 
3.862891e-02 
2.874498e-01 
5.094967e-01 
7.448925e-01 
6.079408e-02 
8.262887e-02 
1.823678e-02 
3.541653e-02 
3.046757e-01 
7.646041e-01 
5.725133e-02 
1.717976e-02 
SCALARS wettingPhaseSaturation float  1 
LOOKUP_TABLE default
2.891867e-01 
1 
1 
2.891867e-01 
2.891867e-01 
2.891867e-01 
2.891867e-01 
1 
1 
1 
2.891867e-01 
2.891867e-01 
2.891867e-01 
2.891867e-01 
1 
1 
2.891867e-01 
2.891867e-01 
