# vtk DataFile Version 2.0
simple_9_homogen_lowAR_SI_025.vtk
ASCII

DATASET POLYDATA
POINTS 15 double
2.500000e-05 2.500000e-05 5.750000e-05 
1.725000e-04 2.500000e-05 5.750000e-05 
3.200000e-04 2.500000e-05 5.750000e-05 
2.500000e-05 1.725000e-04 5.750000e-05 
1.725000e-04 1.725000e-04 5.750000e-05 
3.200000e-04 1.725000e-04 5.750000e-05 
2.500000e-05 3.200000e-04 5.750000e-05 
1.725000e-04 3.200000e-04 5.750000e-05 
3.200000e-04 3.200000e-04 5.750000e-05 
-9.000000e-05 2.500000e-05 5.750000e-05 
4.350000e-04 2.500000e-05 5.750000e-05 
-9.000000e-05 1.725000e-04 5.750000e-05 
4.350000e-04 1.725000e-04 5.750000e-05 
-9.000000e-05 3.200000e-04 5.750000e-05 
4.350000e-04 3.200000e-04 5.750000e-05 
LINES 18 54
2 0 1 2 0 3 2 0 9 2 1 2 2 1 4 2 10 2 2 2 5 2 3 4 2 3 6 2 3 11 2 4 5 2 4 7 2 12 5 2 5 8 2 6 7 2 6 13 2 7 8 2 14 8 POINT_DATA  15 
SCALARS radius float  1 
LOOKUP_TABLE default
3.250000e-05 
3.250000e-05 
3.250000e-05 
3.250000e-05 
3.250000e-05 
3.250000e-05 
3.250000e-05 
3.250000e-05 
3.250000e-05 
0 
0 
0 
0 
0 
0 
SCALARS pressure float  1 
LOOKUP_TABLE default
6.660902e-01 
3.139947e-01 
1.114413e-01 
6.223719e-01 
1.644526e-01 
4.961931e-02 
5.889358e-01 
1.320186e-01 
5.351704e-02 
1 
0 
1 
0 
1 
0 
SCALARS wettingPhaseSaturation float  1 
LOOKUP_TABLE default
1 
1 
1 
1 
1 
1.385996e-01 
1 
1.385996e-01 
1.385996e-01 
1 
0 
1 
0 
1 
0 
CELL_DATA  18 
SCALARS radius float  1 
LOOKUP_TABLE default
2.500000e-05 
2.500000e-05 
2.500000e-05 
2.500000e-05 
2.500000e-05 
2.500000e-05 
2.500000e-05 
2.500000e-05 
2.500000e-05 
2.500000e-05 
2.500000e-05 
2.500000e-05 
2.500000e-05 
2.500000e-05 
2.500000e-05 
2.500000e-05 
2.500000e-05 
2.500000e-05 
SCALARS pressure float  1 
LOOKUP_TABLE default
4.900424e-01 
6.442310e-01 
8.330451e-01 
2.127180e-01 
2.392237e-01 
5.572063e-02 
8.053028e-02 
3.934123e-01 
6.056538e-01 
8.111859e-01 
1.070360e-01 
1.482356e-01 
2.480966e-02 
5.156817e-02 
3.604772e-01 
7.944679e-01 
9.276784e-02 
2.675852e-02 
SCALARS wettingPhaseSaturation float  1 
LOOKUP_TABLE default
1 
1 
1 
1 
1 
1 
1 
1 
1 
1 
2.342333e-01 
2.342333e-01 
2.342333e-01 
2.342333e-01 
1 
1 
2.342333e-01 
2.342333e-01 
