# vtk DataFile Version 2.0
simple_9_homogen_lowAR_PD_024.vtk
ASCII

DATASET POLYDATA
POINTS 15 double
2.500000e-05 2.500000e-05 5.750000e-05 
1.725000e-04 2.500000e-05 5.750000e-05 
3.200000e-04 2.500000e-05 5.750000e-05 
2.500000e-05 1.725000e-04 5.750000e-05 
1.725000e-04 1.725000e-04 5.750000e-05 
3.200000e-04 1.725000e-04 5.750000e-05 
2.500000e-05 3.200000e-04 5.750000e-05 
1.725000e-04 3.200000e-04 5.750000e-05 
3.200000e-04 3.200000e-04 5.750000e-05 
-9.000000e-05 2.500000e-05 5.750000e-05 
4.350000e-04 2.500000e-05 5.750000e-05 
-9.000000e-05 1.725000e-04 5.750000e-05 
4.350000e-04 1.725000e-04 5.750000e-05 
-9.000000e-05 3.200000e-04 5.750000e-05 
4.350000e-04 3.200000e-04 5.750000e-05 
LINES 18 54
2 0 1 2 0 3 2 0 9 2 1 2 2 1 4 2 10 2 2 2 5 2 3 4 2 3 6 2 3 11 2 4 5 2 4 7 2 12 5 2 5 8 2 6 7 2 6 13 2 7 8 2 14 8 POINT_DATA  15 
SCALARS radius float  1 
LOOKUP_TABLE default
3.250000e-05 
3.250000e-05 
3.250000e-05 
3.250000e-05 
3.250000e-05 
3.250000e-05 
3.250000e-05 
3.250000e-05 
3.250000e-05 
0 
0 
0 
0 
0 
0 
SCALARS pressure float  1 
LOOKUP_TABLE default
7.911264e-01 
5.000280e-01 
2.088647e-01 
7.911511e-01 
5.000213e-01 
2.088778e-01 
7.911322e-01 
5.000410e-01 
2.088712e-01 
0 
1 
0 
1 
0 
1 
SCALARS wettingPhaseSaturation float  1 
LOOKUP_TABLE default
2.573942e-02 
2.573942e-02 
2.573942e-02 
2.573942e-02 
2.573942e-02 
2.573942e-02 
2.573942e-02 
2.573942e-02 
2.573942e-02 
0 
1 
0 
1 
0 
1 
CELL_DATA  18 
SCALARS radius float  1 
LOOKUP_TABLE default
2.500000e-05 
2.500000e-05 
2.500000e-05 
2.500000e-05 
2.500000e-05 
2.500000e-05 
2.500000e-05 
2.500000e-05 
2.500000e-05 
2.500000e-05 
2.500000e-05 
2.500000e-05 
2.500000e-05 
2.500000e-05 
2.500000e-05 
2.500000e-05 
2.500000e-05 
2.500000e-05 
SCALARS pressure float  1 
LOOKUP_TABLE default
6.455772e-01 
7.911388e-01 
8.955632e-01 
3.544463e-01 
5.000247e-01 
1.044323e-01 
2.088712e-01 
6.455862e-01 
7.911417e-01 
8.955756e-01 
3.544496e-01 
5.000312e-01 
1.044389e-01 
2.088745e-01 
6.455866e-01 
8.955661e-01 
3.544561e-01 
1.044356e-01 
SCALARS wettingPhaseSaturation float  1 
LOOKUP_TABLE default
4.349962e-02 
4.349962e-02 
4.349962e-02 
4.349962e-02 
4.349962e-02 
4.349962e-02 
4.349962e-02 
4.349962e-02 
4.349962e-02 
4.349962e-02 
4.349962e-02 
4.349962e-02 
4.349962e-02 
4.349962e-02 
4.349962e-02 
4.349962e-02 
4.349962e-02 
4.349962e-02 
