# vtk DataFile Version 2.0
simple_9_homogen_highAR_PD_023.vtk
ASCII

DATASET POLYDATA
POINTS 15 double
2.500000e-05 2.500000e-05 8.250000e-05 
2.475000e-04 2.500000e-05 8.250000e-05 
4.700000e-04 2.500000e-05 8.250000e-05 
2.500000e-05 2.475000e-04 8.250000e-05 
2.475000e-04 2.475000e-04 8.250000e-05 
4.700000e-04 2.475000e-04 8.250000e-05 
2.500000e-05 4.700000e-04 8.250000e-05 
2.475000e-04 4.700000e-04 8.250000e-05 
4.700000e-04 4.700000e-04 8.250000e-05 
-1.400000e-04 2.500000e-05 8.250000e-05 
6.350000e-04 2.500000e-05 8.250000e-05 
-1.400000e-04 2.475000e-04 8.250000e-05 
6.350000e-04 2.475000e-04 8.250000e-05 
-1.400000e-04 4.700000e-04 8.250000e-05 
6.350000e-04 4.700000e-04 8.250000e-05 
LINES 18 54
2 0 1 2 0 3 2 0 9 2 1 2 2 1 4 2 10 2 2 2 5 2 3 4 2 3 6 2 3 11 2 4 5 2 4 7 2 12 5 2 5 8 2 6 7 2 6 13 2 7 8 2 14 8 POINT_DATA  15 
SCALARS radius float  1 
LOOKUP_TABLE default
5.750000e-05 
5.750000e-05 
5.750000e-05 
5.750000e-05 
5.750000e-05 
5.750000e-05 
5.750000e-05 
5.750000e-05 
5.750000e-05 
0 
0 
0 
0 
0 
0 
SCALARS pressure float  1 
LOOKUP_TABLE default
8.027754e-01 
5.000580e-01 
1.972929e-01 
8.027772e-01 
5.000405e-01 
1.972955e-01 
8.027512e-01 
4.999984e-01 
1.972532e-01 
0 
1 
0 
1 
0 
1 
SCALARS wettingPhaseSaturation float  1 
LOOKUP_TABLE default
1.212471e-02 
1.212471e-02 
1.212471e-02 
1.212471e-02 
1.212471e-02 
1.212471e-02 
1.212471e-02 
1.212471e-02 
1.212471e-02 
0 
1 
0 
1 
0 
1 
CELL_DATA  18 
SCALARS radius float  1 
LOOKUP_TABLE default
2.500000e-05 
2.500000e-05 
2.500000e-05 
2.500000e-05 
2.500000e-05 
2.500000e-05 
2.500000e-05 
2.500000e-05 
2.500000e-05 
2.500000e-05 
2.500000e-05 
2.500000e-05 
2.500000e-05 
2.500000e-05 
2.500000e-05 
2.500000e-05 
2.500000e-05 
2.500000e-05 
SCALARS pressure float  1 
LOOKUP_TABLE default
6.514167e-01 
8.027763e-01 
9.013877e-01 
3.486754e-01 
5.000492e-01 
9.864643e-02 
1.972942e-01 
6.514089e-01 
8.027642e-01 
9.013886e-01 
3.486680e-01 
5.000195e-01 
9.864777e-02 
1.972743e-01 
6.513748e-01 
9.013756e-01 
3.486258e-01 
9.862658e-02 
SCALARS wettingPhaseSaturation float  1 
LOOKUP_TABLE default
6.413974e-02 
6.413974e-02 
6.413974e-02 
6.413974e-02 
6.413974e-02 
6.413974e-02 
6.413974e-02 
6.413974e-02 
6.413974e-02 
6.413974e-02 
6.413974e-02 
6.413974e-02 
6.413974e-02 
6.413974e-02 
6.413974e-02 
6.413974e-02 
6.413974e-02 
6.413974e-02 
