# vtk DataFile Version 2.0
simple_9_homogen_highAR_SI_021.vtk
ASCII

DATASET POLYDATA
POINTS 15 double
2.500000e-05 2.500000e-05 8.250000e-05 
2.475000e-04 2.500000e-05 8.250000e-05 
4.700000e-04 2.500000e-05 8.250000e-05 
2.500000e-05 2.475000e-04 8.250000e-05 
2.475000e-04 2.475000e-04 8.250000e-05 
4.700000e-04 2.475000e-04 8.250000e-05 
2.500000e-05 4.700000e-04 8.250000e-05 
2.475000e-04 4.700000e-04 8.250000e-05 
4.700000e-04 4.700000e-04 8.250000e-05 
-1.400000e-04 2.500000e-05 8.250000e-05 
6.350000e-04 2.500000e-05 8.250000e-05 
-1.400000e-04 2.475000e-04 8.250000e-05 
6.350000e-04 2.475000e-04 8.250000e-05 
-1.400000e-04 4.700000e-04 8.250000e-05 
6.350000e-04 4.700000e-04 8.250000e-05 
LINES 18 54
2 0 1 2 0 3 2 0 9 2 1 2 2 1 4 2 10 2 2 2 5 2 3 4 2 3 6 2 3 11 2 4 5 2 4 7 2 12 5 2 5 8 2 6 7 2 6 13 2 7 8 2 14 8 POINT_DATA  15 
SCALARS radius float  1 
LOOKUP_TABLE default
5.750000e-05 
5.750000e-05 
5.750000e-05 
5.750000e-05 
5.750000e-05 
5.750000e-05 
5.750000e-05 
5.750000e-05 
5.750000e-05 
0 
0 
0 
0 
0 
0 
SCALARS pressure float  1 
LOOKUP_TABLE default
6.469633e-01 
3.745218e-01 
1.682625e-01 
5.559520e-01 
3.083388e-01 
1.352297e-01 
2.554039e-01 
1.676518e-01 
6.830897e-02 
1 
0 
1 
0 
1 
0 
SCALARS wettingPhaseSaturation float  1 
LOOKUP_TABLE default
7.501214e-02 
7.501214e-02 
7.501214e-02 
7.501214e-02 
7.501214e-02 
7.501214e-02 
7.501214e-02 
7.501214e-02 
7.501214e-02 
1 
0 
1 
0 
1 
0 
CELL_DATA  18 
SCALARS radius float  1 
LOOKUP_TABLE default
2.500000e-05 
2.500000e-05 
2.500000e-05 
2.500000e-05 
2.500000e-05 
2.500000e-05 
2.500000e-05 
2.500000e-05 
2.500000e-05 
2.500000e-05 
2.500000e-05 
2.500000e-05 
2.500000e-05 
2.500000e-05 
2.500000e-05 
2.500000e-05 
2.500000e-05 
2.500000e-05 
SCALARS pressure float  1 
LOOKUP_TABLE default
5.107426e-01 
6.014577e-01 
8.234817e-01 
2.713922e-01 
3.414303e-01 
8.413127e-02 
1.517461e-01 
4.321454e-01 
4.056779e-01 
7.779760e-01 
2.217842e-01 
2.379953e-01 
6.761484e-02 
1.017693e-01 
2.115278e-01 
6.277019e-01 
1.179804e-01 
3.415449e-02 
SCALARS wettingPhaseSaturation float  1 
LOOKUP_TABLE default
1 
1 
1 
1 
1 
1 
1 
1 
1 
1 
1 
1 
1 
1 
3.968142e-01 
1 
3.968142e-01 
3.968142e-01 
