# vtk DataFile Version 2.0
simple_9_homogen_highAR_PD_023.vtk
ASCII

DATASET POLYDATA
POINTS 15 double
2.500000e-05 2.500000e-05 8.250000e-05 
2.475000e-04 2.500000e-05 8.250000e-05 
4.700000e-04 2.500000e-05 8.250000e-05 
2.500000e-05 2.475000e-04 8.250000e-05 
2.475000e-04 2.475000e-04 8.250000e-05 
4.700000e-04 2.475000e-04 8.250000e-05 
2.500000e-05 4.700000e-04 8.250000e-05 
2.475000e-04 4.700000e-04 8.250000e-05 
4.700000e-04 4.700000e-04 8.250000e-05 
-1.400000e-04 2.500000e-05 8.250000e-05 
6.350000e-04 2.500000e-05 8.250000e-05 
-1.400000e-04 2.475000e-04 8.250000e-05 
6.350000e-04 2.475000e-04 8.250000e-05 
-1.400000e-04 4.700000e-04 8.250000e-05 
6.350000e-04 4.700000e-04 8.250000e-05 
LINES 18 54
2 0 1 2 0 3 2 0 9 2 1 2 2 1 4 2 10 2 2 2 5 2 3 4 2 3 6 2 3 11 2 4 5 2 4 7 2 12 5 2 5 8 2 6 7 2 6 13 2 7 8 2 14 8 POINT_DATA  15 
SCALARS radius float  1 
LOOKUP_TABLE default
5.750000e-05 
5.750000e-05 
5.750000e-05 
5.750000e-05 
5.750000e-05 
5.750000e-05 
5.750000e-05 
5.750000e-05 
5.750000e-05 
0 
0 
0 
0 
0 
0 
SCALARS pressure float  1 
LOOKUP_TABLE default
8.027417e-01 
5.000279e-01 
1.972593e-01 
8.027667e-01 
5.000256e-01 
1.972650e-01 
8.027526e-01 
5.000450e-01 
1.972645e-01 
0 
1 
0 
1 
0 
1 
SCALARS wettingPhaseSaturation float  1 
LOOKUP_TABLE default
1.212471e-02 
1.212471e-02 
1.212471e-02 
1.212471e-02 
1.212471e-02 
1.212471e-02 
1.212471e-02 
1.212471e-02 
1.212471e-02 
0 
1 
0 
1 
0 
1 
CELL_DATA  18 
SCALARS radius float  1 
LOOKUP_TABLE default
2.500000e-05 
2.500000e-05 
2.500000e-05 
2.500000e-05 
2.500000e-05 
2.500000e-05 
2.500000e-05 
2.500000e-05 
2.500000e-05 
2.500000e-05 
2.500000e-05 
2.500000e-05 
2.500000e-05 
2.500000e-05 
2.500000e-05 
2.500000e-05 
2.500000e-05 
2.500000e-05 
SCALARS pressure float  1 
LOOKUP_TABLE default
6.513848e-01 
8.027542e-01 
9.013709e-01 
3.486436e-01 
5.000267e-01 
9.862963e-02 
1.972622e-01 
6.513962e-01 
8.027597e-01 
9.013834e-01 
3.486453e-01 
5.000353e-01 
9.863252e-02 
1.972648e-01 
6.513988e-01 
9.013763e-01 
3.486548e-01 
9.863227e-02 
SCALARS wettingPhaseSaturation float  1 
LOOKUP_TABLE default
6.413974e-02 
6.413974e-02 
6.413974e-02 
6.413974e-02 
6.413974e-02 
6.413974e-02 
6.413974e-02 
6.413974e-02 
6.413974e-02 
6.413974e-02 
6.413974e-02 
6.413974e-02 
6.413974e-02 
6.413974e-02 
6.413974e-02 
6.413974e-02 
6.413974e-02 
6.413974e-02 
