# vtk DataFile Version 2.0
simple_9_homogen_highAR_PD_017.vtk
ASCII

DATASET POLYDATA
POINTS 15 double
2.500000e-05 2.500000e-05 8.250000e-05 
2.475000e-04 2.500000e-05 8.250000e-05 
4.700000e-04 2.500000e-05 8.250000e-05 
2.500000e-05 2.475000e-04 8.250000e-05 
2.475000e-04 2.475000e-04 8.250000e-05 
4.700000e-04 2.475000e-04 8.250000e-05 
2.500000e-05 4.700000e-04 8.250000e-05 
2.475000e-04 4.700000e-04 8.250000e-05 
4.700000e-04 4.700000e-04 8.250000e-05 
-1.400000e-04 2.500000e-05 8.250000e-05 
6.350000e-04 2.500000e-05 8.250000e-05 
-1.400000e-04 2.475000e-04 8.250000e-05 
6.350000e-04 2.475000e-04 8.250000e-05 
-1.400000e-04 4.700000e-04 8.250000e-05 
6.350000e-04 4.700000e-04 8.250000e-05 
LINES 18 54
2 0 1 2 0 3 2 0 9 2 1 2 2 1 4 2 10 2 2 2 5 2 3 4 2 3 6 2 3 11 2 4 5 2 4 7 2 12 5 2 5 8 2 6 7 2 6 13 2 7 8 2 14 8 POINT_DATA  15 
SCALARS radius float  1 
LOOKUP_TABLE default
5.750000e-05 
5.750000e-05 
5.750000e-05 
5.750000e-05 
5.750000e-05 
5.750000e-05 
5.750000e-05 
5.750000e-05 
5.750000e-05 
0 
0 
0 
0 
0 
0 
SCALARS pressure float  1 
LOOKUP_TABLE default
8.324739e-01 
5.749948e-01 
3.184172e-01 
8.328212e-01 
5.740378e-01 
3.074901e-01 
8.353089e-01 
5.850380e-01 
2.655071e-01 
0 
1 
0 
1 
0 
1 
SCALARS wettingPhaseSaturation float  1 
LOOKUP_TABLE default
2.376444e-02 
2.376444e-02 
2.376444e-02 
2.376444e-02 
2.376444e-02 
2.376444e-02 
2.376444e-02 
2.376444e-02 
1 
0 
1 
0 
1 
0 
1 
CELL_DATA  18 
SCALARS radius float  1 
LOOKUP_TABLE default
2.500000e-05 
2.500000e-05 
2.500000e-05 
2.500000e-05 
2.500000e-05 
2.500000e-05 
2.500000e-05 
2.500000e-05 
2.500000e-05 
2.500000e-05 
2.500000e-05 
2.500000e-05 
2.500000e-05 
2.500000e-05 
2.500000e-05 
2.500000e-05 
2.500000e-05 
2.500000e-05 
SCALARS pressure float  1 
LOOKUP_TABLE default
7.037343e-01 
8.326476e-01 
9.162370e-01 
4.467060e-01 
5.745163e-01 
1.592086e-01 
3.129537e-01 
7.034295e-01 
8.340651e-01 
9.164106e-01 
4.407639e-01 
5.795379e-01 
1.537451e-01 
2.864986e-01 
7.101735e-01 
9.176545e-01 
4.252726e-01 
1.327536e-01 
SCALARS wettingPhaseSaturation float  1 
LOOKUP_TABLE default
1.257139e-01 
1.257139e-01 
1.257139e-01 
1.257139e-01 
1.257139e-01 
1 
1 
1.257139e-01 
1.257139e-01 
1.257139e-01 
1.257139e-01 
1 
1 
1 
1.257139e-01 
1.257139e-01 
1 
1 
