# vtk DataFile Version 2.0
simple_9_homogen_highAR_PD_017.vtk
ASCII

DATASET POLYDATA
POINTS 15 double
2.500000e-05 2.500000e-05 8.250000e-05 
2.475000e-04 2.500000e-05 8.250000e-05 
4.700000e-04 2.500000e-05 8.250000e-05 
2.500000e-05 2.475000e-04 8.250000e-05 
2.475000e-04 2.475000e-04 8.250000e-05 
4.700000e-04 2.475000e-04 8.250000e-05 
2.500000e-05 4.700000e-04 8.250000e-05 
2.475000e-04 4.700000e-04 8.250000e-05 
4.700000e-04 4.700000e-04 8.250000e-05 
-1.400000e-04 2.500000e-05 8.250000e-05 
6.350000e-04 2.500000e-05 8.250000e-05 
-1.400000e-04 2.475000e-04 8.250000e-05 
6.350000e-04 2.475000e-04 8.250000e-05 
-1.400000e-04 4.700000e-04 8.250000e-05 
6.350000e-04 4.700000e-04 8.250000e-05 
LINES 18 54
2 0 1 2 0 3 2 0 9 2 1 2 2 1 4 2 10 2 2 2 5 2 3 4 2 3 6 2 3 11 2 4 5 2 4 7 2 12 5 2 5 8 2 6 7 2 6 13 2 7 8 2 14 8 POINT_DATA  15 
SCALARS radius float  1 
LOOKUP_TABLE default
5.750000e-05 
5.750000e-05 
5.750000e-05 
5.750000e-05 
5.750000e-05 
5.750000e-05 
5.750000e-05 
5.750000e-05 
5.750000e-05 
0 
0 
0 
0 
0 
0 
SCALARS pressure float  1 
LOOKUP_TABLE default
8.324358e-01 
5.749477e-01 
3.183626e-01 
8.328002e-01 
5.739962e-01 
3.074427e-01 
8.352931e-01 
5.850283e-01 
2.654935e-01 
0 
1 
0 
1 
0 
1 
SCALARS wettingPhaseSaturation float  1 
LOOKUP_TABLE default
2.376444e-02 
2.376444e-02 
2.376444e-02 
2.376444e-02 
2.376444e-02 
2.376444e-02 
2.376444e-02 
2.376444e-02 
1 
0 
1 
0 
1 
0 
1 
CELL_DATA  18 
SCALARS radius float  1 
LOOKUP_TABLE default
2.500000e-05 
2.500000e-05 
2.500000e-05 
2.500000e-05 
2.500000e-05 
2.500000e-05 
2.500000e-05 
2.500000e-05 
2.500000e-05 
2.500000e-05 
2.500000e-05 
2.500000e-05 
2.500000e-05 
2.500000e-05 
2.500000e-05 
2.500000e-05 
2.500000e-05 
2.500000e-05 
SCALARS pressure float  1 
LOOKUP_TABLE default
7.036917e-01 
8.326180e-01 
9.162179e-01 
4.466551e-01 
5.744719e-01 
1.591813e-01 
3.129026e-01 
7.033982e-01 
8.340466e-01 
9.164001e-01 
4.407194e-01 
5.795123e-01 
1.537213e-01 
2.864681e-01 
7.101607e-01 
9.176465e-01 
4.252609e-01 
1.327468e-01 
SCALARS wettingPhaseSaturation float  1 
LOOKUP_TABLE default
1.257139e-01 
1.257139e-01 
1.257139e-01 
1.257139e-01 
1.257139e-01 
1 
1 
1.257139e-01 
1.257139e-01 
1.257139e-01 
1.257139e-01 
1 
1 
1 
1.257139e-01 
1.257139e-01 
1 
1 
