# vtk DataFile Version 2.0
simple_9_homogen_highAR_PD_011.vtk
ASCII

DATASET POLYDATA
POINTS 15 double
2.500000e-05 2.500000e-05 8.250000e-05 
2.475000e-04 2.500000e-05 8.250000e-05 
4.700000e-04 2.500000e-05 8.250000e-05 
2.500000e-05 2.475000e-04 8.250000e-05 
2.475000e-04 2.475000e-04 8.250000e-05 
4.700000e-04 2.475000e-04 8.250000e-05 
2.500000e-05 4.700000e-04 8.250000e-05 
2.475000e-04 4.700000e-04 8.250000e-05 
4.700000e-04 4.700000e-04 8.250000e-05 
-1.400000e-04 2.500000e-05 8.250000e-05 
6.350000e-04 2.500000e-05 8.250000e-05 
-1.400000e-04 2.475000e-04 8.250000e-05 
6.350000e-04 2.475000e-04 8.250000e-05 
-1.400000e-04 4.700000e-04 8.250000e-05 
6.350000e-04 4.700000e-04 8.250000e-05 
LINES 18 54
2 0 1 2 0 3 2 0 9 2 1 2 2 1 4 2 10 2 2 2 5 2 3 4 2 3 6 2 3 11 2 4 5 2 4 7 2 12 5 2 5 8 2 6 7 2 6 13 2 7 8 2 14 8 POINT_DATA  15 
SCALARS radius float  1 
LOOKUP_TABLE default
5.750000e-05 
5.750000e-05 
5.750000e-05 
5.750000e-05 
5.750000e-05 
5.750000e-05 
5.750000e-05 
5.750000e-05 
5.750000e-05 
0 
0 
0 
0 
0 
0 
SCALARS pressure float  1 
LOOKUP_TABLE default
8.174443e-01 
4.969257e-01 
2.446323e-01 
7.703143e-01 
5.045473e-01 
2.466275e-01 
7.613520e-01 
5.043216e-01 
2.470656e-01 
0 
1 
0 
1 
0 
1 
SCALARS wettingPhaseSaturation float  1 
LOOKUP_TABLE default
2.376444e-02 
1 
1 
1 
1 
1 
1 
1 
1 
0 
1 
0 
1 
0 
1 
CELL_DATA  18 
SCALARS radius float  1 
LOOKUP_TABLE default
2.500000e-05 
2.500000e-05 
2.500000e-05 
2.500000e-05 
2.500000e-05 
2.500000e-05 
2.500000e-05 
2.500000e-05 
2.500000e-05 
2.500000e-05 
2.500000e-05 
2.500000e-05 
2.500000e-05 
2.500000e-05 
2.500000e-05 
2.500000e-05 
2.500000e-05 
2.500000e-05 
SCALARS pressure float  1 
LOOKUP_TABLE default
6.571850e-01 
7.938793e-01 
9.087222e-01 
3.707790e-01 
5.007365e-01 
1.223162e-01 
2.456299e-01 
6.374308e-01 
7.658331e-01 
8.851571e-01 
3.755874e-01 
5.044345e-01 
1.233138e-01 
2.468466e-01 
6.328368e-01 
8.806760e-01 
3.756936e-01 
1.235328e-01 
SCALARS wettingPhaseSaturation float  1 
LOOKUP_TABLE default
1 
1 
1.257139e-01 
1 
1 
1 
1 
1 
1 
1 
1 
1 
1 
1 
1 
1 
1 
1 
