# vtk DataFile Version 2.0
simple_9_homogen_highAR_SI_013.vtk
ASCII

DATASET POLYDATA
POINTS 15 double
2.500000e-05 2.500000e-05 8.250000e-05 
2.475000e-04 2.500000e-05 8.250000e-05 
4.700000e-04 2.500000e-05 8.250000e-05 
2.500000e-05 2.475000e-04 8.250000e-05 
2.475000e-04 2.475000e-04 8.250000e-05 
4.700000e-04 2.475000e-04 8.250000e-05 
2.500000e-05 4.700000e-04 8.250000e-05 
2.475000e-04 4.700000e-04 8.250000e-05 
4.700000e-04 4.700000e-04 8.250000e-05 
-1.400000e-04 2.500000e-05 8.250000e-05 
6.350000e-04 2.500000e-05 8.250000e-05 
-1.400000e-04 2.475000e-04 8.250000e-05 
6.350000e-04 2.475000e-04 8.250000e-05 
-1.400000e-04 4.700000e-04 8.250000e-05 
6.350000e-04 4.700000e-04 8.250000e-05 
LINES 18 54
2 0 1 2 0 3 2 0 9 2 1 2 2 1 4 2 10 2 2 2 5 2 3 4 2 3 6 2 3 11 2 4 5 2 4 7 2 12 5 2 5 8 2 6 7 2 6 13 2 7 8 2 14 8 POINT_DATA  15 
SCALARS radius float  1 
LOOKUP_TABLE default
5.750000e-05 
5.750000e-05 
5.750000e-05 
5.750000e-05 
5.750000e-05 
5.750000e-05 
5.750000e-05 
5.750000e-05 
5.750000e-05 
0 
0 
0 
0 
0 
0 
SCALARS pressure float  1 
LOOKUP_TABLE default
4.787239e-01 
2.105402e-01 
2.357519e-02 
2.102502e-01 
1.293210e-01 
4.438632e-02 
2.022178e-01 
1.266466e-01 
4.838419e-02 
1 
0 
1 
0 
1 
0 
SCALARS wettingPhaseSaturation float  1 
LOOKUP_TABLE default
7.501214e-02 
7.501214e-02 
7.501214e-02 
7.501214e-02 
7.501214e-02 
7.501214e-02 
7.501214e-02 
7.501214e-02 
7.501214e-02 
1 
0 
1 
0 
1 
0 
CELL_DATA  18 
SCALARS radius float  1 
LOOKUP_TABLE default
2.500000e-05 
2.500000e-05 
2.500000e-05 
2.500000e-05 
2.500000e-05 
2.500000e-05 
2.500000e-05 
2.500000e-05 
2.500000e-05 
2.500000e-05 
2.500000e-05 
2.500000e-05 
2.500000e-05 
2.500000e-05 
2.500000e-05 
2.500000e-05 
2.500000e-05 
2.500000e-05 
SCALARS pressure float  1 
LOOKUP_TABLE default
3.446320e-01 
3.444870e-01 
7.393619e-01 
1.170577e-01 
1.699306e-01 
1.178759e-02 
3.398075e-02 
1.697856e-01 
2.062340e-01 
6.051251e-01 
8.685368e-02 
1.279838e-01 
2.219316e-02 
4.638526e-02 
1.644322e-01 
6.011089e-01 
8.751538e-02 
2.419210e-02 
SCALARS wettingPhaseSaturation float  1 
LOOKUP_TABLE default
1 
1 
1 
1 
1 
3.968142e-01 
3.968142e-01 
3.968142e-01 
3.968142e-01 
1 
3.968142e-01 
3.968142e-01 
3.968142e-01 
3.968142e-01 
3.968142e-01 
1 
3.968142e-01 
3.968142e-01 
