# vtk DataFile Version 2.0
simple_9_homogen_highAR_SI_003.vtk
ASCII

DATASET POLYDATA
POINTS 15 double
2.500000e-05 2.500000e-05 8.250000e-05 
2.475000e-04 2.500000e-05 8.250000e-05 
4.700000e-04 2.500000e-05 8.250000e-05 
2.500000e-05 2.475000e-04 8.250000e-05 
2.475000e-04 2.475000e-04 8.250000e-05 
4.700000e-04 2.475000e-04 8.250000e-05 
2.500000e-05 4.700000e-04 8.250000e-05 
2.475000e-04 4.700000e-04 8.250000e-05 
4.700000e-04 4.700000e-04 8.250000e-05 
-1.400000e-04 2.500000e-05 8.250000e-05 
6.350000e-04 2.500000e-05 8.250000e-05 
-1.400000e-04 2.475000e-04 8.250000e-05 
6.350000e-04 2.475000e-04 8.250000e-05 
-1.400000e-04 4.700000e-04 8.250000e-05 
6.350000e-04 4.700000e-04 8.250000e-05 
LINES 18 54
2 0 1 2 0 3 2 0 9 2 1 2 2 1 4 2 10 2 2 2 5 2 3 4 2 3 6 2 3 11 2 4 5 2 4 7 2 12 5 2 5 8 2 6 7 2 6 13 2 7 8 2 14 8 POINT_DATA  15 
SCALARS radius float  1 
LOOKUP_TABLE default
5.750000e-05 
5.750000e-05 
5.750000e-05 
5.750000e-05 
5.750000e-05 
5.750000e-05 
5.750000e-05 
5.750000e-05 
5.750000e-05 
0 
0 
0 
0 
0 
0 
SCALARS pressure float  1 
LOOKUP_TABLE default
8.027447e-01 
5.000200e-01 
1.972560e-01 
8.027627e-01 
5.000184e-01 
1.972602e-01 
8.027525e-01 
5.000323e-01 
1.972598e-01 
1 
0 
1 
0 
1 
0 
SCALARS wettingPhaseSaturation float  1 
LOOKUP_TABLE default
6.308521e-03 
6.308521e-03 
6.308521e-03 
6.308521e-03 
6.308521e-03 
6.308521e-03 
6.308521e-03 
6.308521e-03 
6.308521e-03 
1 
0 
1 
0 
1 
0 
CELL_DATA  18 
SCALARS radius float  1 
LOOKUP_TABLE default
2.500000e-05 
2.500000e-05 
2.500000e-05 
2.500000e-05 
2.500000e-05 
2.500000e-05 
2.500000e-05 
2.500000e-05 
2.500000e-05 
2.500000e-05 
2.500000e-05 
2.500000e-05 
2.500000e-05 
2.500000e-05 
2.500000e-05 
2.500000e-05 
2.500000e-05 
2.500000e-05 
SCALARS pressure float  1 
LOOKUP_TABLE default
6.513824e-01 
8.027537e-01 
9.013724e-01 
3.486380e-01 
5.000192e-01 
9.862801e-02 
1.972581e-01 
6.513905e-01 
8.027576e-01 
9.013813e-01 
3.486393e-01 
5.000254e-01 
9.863008e-02 
1.972600e-01 
6.513924e-01 
9.013763e-01 
3.486461e-01 
9.862990e-02 
SCALARS wettingPhaseSaturation float  1 
LOOKUP_TABLE default
3.337208e-02 
3.337208e-02 
3.337208e-02 
3.337208e-02 
3.337208e-02 
3.337208e-02 
3.337208e-02 
3.337208e-02 
3.337208e-02 
3.337208e-02 
3.337208e-02 
3.337208e-02 
3.337208e-02 
3.337208e-02 
3.337208e-02 
3.337208e-02 
3.337208e-02 
3.337208e-02 
