# vtk DataFile Version 2.0
simple_9_homogen_highAR_SI_011.vtk
ASCII

DATASET POLYDATA
POINTS 15 double
2.500000e-05 2.500000e-05 8.250000e-05 
2.475000e-04 2.500000e-05 8.250000e-05 
4.700000e-04 2.500000e-05 8.250000e-05 
2.500000e-05 2.475000e-04 8.250000e-05 
2.475000e-04 2.475000e-04 8.250000e-05 
4.700000e-04 2.475000e-04 8.250000e-05 
2.500000e-05 4.700000e-04 8.250000e-05 
2.475000e-04 4.700000e-04 8.250000e-05 
4.700000e-04 4.700000e-04 8.250000e-05 
-1.400000e-04 2.500000e-05 8.250000e-05 
6.350000e-04 2.500000e-05 8.250000e-05 
-1.400000e-04 2.475000e-04 8.250000e-05 
6.350000e-04 2.475000e-04 8.250000e-05 
-1.400000e-04 4.700000e-04 8.250000e-05 
6.350000e-04 4.700000e-04 8.250000e-05 
LINES 18 54
2 0 1 2 0 3 2 0 9 2 1 2 2 1 4 2 10 2 2 2 5 2 3 4 2 3 6 2 3 11 2 4 5 2 4 7 2 12 5 2 5 8 2 6 7 2 6 13 2 7 8 2 14 8 POINT_DATA  15 
SCALARS radius float  1 
LOOKUP_TABLE default
5.750000e-05 
5.750000e-05 
5.750000e-05 
5.750000e-05 
5.750000e-05 
5.750000e-05 
5.750000e-05 
5.750000e-05 
5.750000e-05 
0 
0 
0 
0 
0 
0 
SCALARS pressure float  1 
LOOKUP_TABLE default
4.313532e-01 
8.611530e-02 
3.604915e-02 
1.911659e-01 
1.077836e-01 
4.131574e-02 
1.862966e-01 
1.125403e-01 
4.352496e-02 
1 
0 
1 
0 
1 
0 
SCALARS wettingPhaseSaturation float  1 
LOOKUP_TABLE default
7.501214e-02 
7.501214e-02 
7.501214e-02 
7.501214e-02 
7.501214e-02 
7.501214e-02 
7.501214e-02 
7.501214e-02 
7.501214e-02 
1 
0 
1 
0 
1 
0 
CELL_DATA  18 
SCALARS radius float  1 
LOOKUP_TABLE default
2.500000e-05 
2.500000e-05 
2.500000e-05 
2.500000e-05 
2.500000e-05 
2.500000e-05 
2.500000e-05 
2.500000e-05 
2.500000e-05 
2.500000e-05 
2.500000e-05 
2.500000e-05 
2.500000e-05 
2.500000e-05 
2.500000e-05 
2.500000e-05 
2.500000e-05 
2.500000e-05 
SCALARS pressure float  1 
LOOKUP_TABLE default
2.587343e-01 
3.112595e-01 
7.156766e-01 
6.108222e-02 
9.694944e-02 
1.802457e-02 
3.868244e-02 
1.494747e-01 
1.887313e-01 
5.955829e-01 
7.454966e-02 
1.101620e-01 
2.065787e-02 
4.242035e-02 
1.494185e-01 
5.931483e-01 
7.803265e-02 
2.176248e-02 
SCALARS wettingPhaseSaturation float  1 
LOOKUP_TABLE default
1 
1 
1 
3.968142e-01 
3.968142e-01 
3.968142e-01 
3.968142e-01 
3.968142e-01 
3.968142e-01 
1 
3.968142e-01 
3.968142e-01 
3.968142e-01 
3.968142e-01 
3.968142e-01 
1 
3.968142e-01 
3.968142e-01 
